# vtk DataFile Version 5.1
vtk output
ASCII
DATASET POLYDATA
POINTS 438 float
67.349 91.406 0.56329 67.378 91.373 0.82613 67.406 91.341 1.089 
67.434 91.311 1.352 67.46 91.282 1.615 67.486 91.257 1.8783 
67.51 91.236 2.1417 67.533 91.219 2.4053 67.554 91.208 2.6693 
67.572 91.202 2.9335 67.588 91.204 3.1981 67.601 91.213 3.4632 
67.611 91.228 3.729 67.619 91.249 3.996 67.625 91.273 4.2646 
67.629 91.301 4.5352 67.631 91.33 4.8081 67.632 91.359 5.0838 
67.631 91.388 5.3626 67.629 91.415 5.645 67.626 91.438 5.9313 
67.623 91.458 6.2217 67.618 91.474 6.5157 67.612 91.487 6.8126 
67.604 91.498 7.1115 67.595 91.508 7.4118 67.584 91.518 7.7128 
67.571 91.527 8.0136 67.555 91.538 8.3135 67.537 91.551 8.6118 
67.515 91.567 8.9077 67.491 91.586 9.2007 67.464 91.608 9.4908 
67.434 91.634 9.7781 67.402 91.662 10.063 67.369 91.694 10.345 
67.333 91.728 10.625 67.297 91.764 10.903 67.26 91.802 11.179 
67.222 91.843 11.453 67.184 91.885 11.726 67.146 91.929 11.997 
67.107 91.974 12.267 67.067 92.02 12.535 67.024 92.067 12.803 
66.977 92.114 13.07 66.926 92.161 13.336 66.87 92.207 13.601 
66.808 92.253 13.866 66.739 92.297 14.13 66.662 92.34 14.395 
66.576 92.381 14.659 66.484 92.418 14.922 66.385 92.452 15.184 
66.283 92.481 15.444 66.178 92.503 15.701 66.072 92.519 15.955 
65.966 92.526 16.204 65.863 92.524 16.449 65.763 92.511 16.689 
65.669 92.487 16.922 65.582 92.451 17.149 65.499 92.404 17.37 
65.42 92.346 17.586 65.342 92.28 17.798 65.265 92.205 18.007 
65.186 92.123 18.213 65.103 92.035 18.417 65.015 91.943 18.621 
64.92 91.847 18.825 64.816 91.748 19.029 64.702 91.648 19.236 
64.581 91.546 19.444 64.453 91.442 19.653 64.321 91.334 19.863 
64.188 91.223 20.074 64.055 91.108 20.286 63.925 90.988 20.498 
63.8 90.864 20.711 63.682 90.734 20.924 63.574 90.597 21.136 
63.477 90.455 21.348 63.392 90.306 21.559 63.32 90.151 21.77 
63.262 89.992 21.98 63.217 89.828 22.188 63.187 89.661 22.396 
63.173 89.49 22.602 63.174 89.316 22.807 63.192 89.14 23.01 
63.227 88.962 23.212 63.279 88.782 23.411 63.348 88.602 23.608 
63.434 88.422 23.802 63.534 88.242 23.992 63.65 88.062 24.178 
63.778 87.884 24.358 63.92 87.707 24.533 64.074 87.533 24.702 
64.239 87.36 24.864 64.414 87.191 25.018 64.599 87.025 25.164 
64.792 86.862 25.301 64.993 86.702 25.427 65.201 86.543 25.541 
65.414 86.386 25.643 65.631 86.23 25.73 65.851 86.075 25.803 
66.074 85.919 25.859 66.297 85.763 25.898 66.521 85.606 25.919 
66.744 85.449 25.92 66.967 85.291 25.904 67.19 85.134 25.873 
67.415 84.979 25.831 67.642 84.827 25.779 67.872 84.68 25.72 
68.105 84.539 25.658 68.343 84.405 25.593 68.587 84.279 25.53 
68.836 84.162 25.471 69.092 84.055 25.417 69.353 83.958 25.369 
69.619 83.867 25.325 69.887 83.783 25.286 70.156 83.702 25.251 
70.425 83.624 25.218 70.692 83.547 25.188 70.956 83.469 25.159 
71.216 83.388 25.132 71.47 83.304 25.104 71.717 83.215 25.076 
71.958 83.12 25.049 72.194 83.022 25.021 72.427 82.92 24.993 
72.658 82.815 24.966 72.888 82.709 24.939 73.119 82.601 24.914 
73.352 82.492 24.889 73.588 82.384 24.865 73.828 82.276 24.843 
74.074 82.169 24.822 74.326 82.064 24.804 74.581 81.961 24.788 
74.841 81.858 24.774 75.103 81.757 24.764 75.367 81.657 24.758 
75.633 81.558 24.757 75.9 81.46 24.759 76.167 81.363 24.767 
76.433 81.267 24.78 76.698 81.171 24.799 76.961 81.077 24.824 
77.223 80.982 24.855 77.483 80.888 24.891 77.74 80.794 24.932 
77.996 80.7 24.978 78.25 80.605 25.029 78.502 80.51 25.084 
78.751 80.414 25.145 78.998 80.317 25.209 79.243 80.219 25.278 
79.485 80.12 25.352 79.724 80.021 25.431 79.961 79.923 25.515 
80.196 79.827 25.607 80.428 79.732 25.706 80.659 79.639 25.812 
80.887 79.55 25.927 81.113 79.464 26.051 81.337 79.383 26.185 
81.56 79.306 26.329 81.779 79.233 26.482 81.996 79.163 26.644 
82.209 79.095 26.814 82.418 79.028 26.991 82.623 78.962 27.174 
82.823 78.894 27.364 83.017 78.825 27.558 83.206 78.754 27.757 
83.388 78.678 27.959 83.563 78.599 28.164 83.731 78.516 28.372 
83.892 78.431 28.583 84.047 78.345 28.797 84.195 78.259 29.015 
84.337 78.173 29.237 84.472 78.09 29.463 84.601 78.009 29.694 
84.723 77.933 29.929 84.839 77.862 30.169 84.949 77.798 30.414 
85.053 77.738 30.664 85.148 77.683 30.917 85.236 77.631 31.174 
85.315 77.582 31.434 85.385 77.535 31.697 85.444 77.488 31.962 
85.493 77.44 32.228 85.53 77.391 32.495 85.555 77.34 32.762 
85.568 77.285 33.029 85.57 77.229 33.297 85.562 77.169 33.565 
85.546 77.108 33.834 85.523 77.046 34.104 85.496 76.984 34.375 
85.465 76.921 34.648 85.433 76.859 34.922 85.4 76.798 35.199 
85.368 76.739 35.477 85.34 76.681 35.758 85.314 76.624 36.041 
85.292 76.567 36.324 85.275 76.506 36.606 85.262 76.441 36.885 
85.254 76.371 37.161 85.251 76.292 37.433 85.254 76.205 37.699 
85.263 76.107 37.957 85.279 75.996 38.208 85.301 75.872 38.449 
85.329 75.734 38.68 85.36 75.584 38.901 85.394 75.423 39.111 
85.427 75.251 39.311 85.459 75.068 39.5 85.488 74.877 39.676 
85.511 74.677 39.841 85.528 74.47 39.994 85.537 74.256 40.134 
85.536 74.036 40.261 85.526 73.811 40.375 85.507 73.58 40.477 
85.48 73.344 40.568 85.445 73.104 40.647 85.404 72.86 40.715 
85.357 72.612 40.773 85.304 72.361 40.821 85.247 72.106 40.859 
85.186 71.849 40.888 85.121 71.59 40.908 85.053 71.329 40.919 
84.981 71.067 40.924 84.905 70.806 40.922 84.824 70.546 40.914 
84.74 70.287 40.901 84.65 70.032 40.883 84.556 69.78 40.862 
84.457 69.533 40.837 84.352 69.29 40.811 84.241 69.054 40.782 
84.126 68.823 40.753 84.007 68.595 40.722 83.885 68.37 40.69 
83.761 68.147 40.657 83.636 67.923 40.623 83.509 67.698 40.588 
83.384 67.47 40.553 83.259 67.239 40.517 83.137 67.003 40.481 
83.017 66.761 40.445 82.901 66.514 40.409 82.787 66.262 40.373 
82.677 66.008 40.337 82.57 65.751 40.302 82.467 65.493 40.268 
82.368 65.236 40.235 82.272 64.979 40.203 82.18 64.724 40.173 
82.092 64.473 40.144 82.009 64.225 40.118 81.929 63.98 40.094 
81.855 63.738 40.077 81.786 63.496 40.066 81.722 63.253 40.064 
81.664 63.01 40.072 81.613 62.764 40.092 81.568 62.514 40.126 
81.531 62.26 40.176 81.5 62 40.243 81.478 61.734 40.329 
81.465 61.465 40.431 81.464 61.197 40.548 81.477 60.932 40.678 
81.505 60.675 40.819 81.551 60.429 40.969 81.616 60.199 41.126 
81.702 59.986 41.287 81.813 59.796 41.451 81.948 59.632 41.616 
82.11 59.496 41.779 82.295 59.389 41.939 82.5 59.312 42.095 
82.72 59.264 42.245 82.951 59.244 42.386 83.191 59.253 42.518 
83.433 59.29 42.638 83.675 59.356 42.745 83.913 59.45 42.838 
84.142 59.572 42.914 84.36 59.722 42.973 84.568 59.895 43.015 
84.767 60.088 43.043 84.96 60.297 43.058 85.148 60.518 43.063 
85.334 60.746 43.058 85.52 60.978 43.046 85.706 61.209 43.029 
85.897 61.436 43.008 86.092 61.654 42.985 86.295 61.861 42.962 
86.501 62.059 42.939 86.709 62.251 42.917 86.914 62.44 42.894 
87.114 62.631 42.873 87.305 62.826 42.852 87.484 63.03 42.832 
87.649 63.244 42.814 87.795 63.474 42.797 87.92 63.722 42.781 
88.022 63.991 42.768 88.1 64.277 42.758 88.157 64.575 42.756 
88.195 64.88 42.764 88.215 65.188 42.784 88.219 65.494 42.818 
88.208 65.793 42.87 88.185 66.081 42.943 88.151 66.352 43.038 
88.107 66.601 43.159 88.055 66.826 43.307 87.996 67.028 43.478 
87.927 67.21 43.669 87.849 67.374 43.876 87.76 67.525 44.093 
87.662 67.664 44.318 87.552 67.796 44.545 87.43 67.922 44.771 
87.296 68.046 44.991 87.149 68.171 45.2 86.989 68.299 45.396 
86.817 68.431 45.58 86.633 68.566 45.751 86.441 68.703 45.913 
86.24 68.843 46.066 86.032 68.984 46.212 85.82 69.128 46.353 
85.603 69.272 46.488 85.383 69.417 46.622 84.986 69.491 46.89 
84.81 69.421 47.027 84.634 69.35 47.163 84.456 69.281 47.299 
84.278 69.213 47.435 84.098 69.147 47.57 83.917 69.082 47.704 
83.735 69.02 47.838 83.55 68.96 47.971 83.363 68.903 48.102 
83.173 68.849 48.233 82.983 68.797 48.363 82.792 68.746 48.494 
82.602 68.696 48.626 82.414 68.646 48.76 82.229 68.594 48.896 
82.049 68.541 49.035 81.874 68.484 49.179 81.706 68.424 49.327 
81.545 68.359 49.481 81.394 68.289 49.641 81.251 68.214 49.807 
81.114 68.134 49.978 80.984 68.051 50.153 80.86 67.964 50.331 
80.74 67.874 50.513 80.623 67.783 50.698 80.51 67.689 50.884 
80.398 67.595 51.071 80.371 67.594 51.492 80.458 67.689 51.723 
80.548 67.783 51.952 80.644 67.877 52.177 80.747 67.972 52.398 
80.859 68.066 52.613 80.982 68.161 52.821 81.117 68.255 53.021 
81.268 68.35 53.211 81.434 68.445 53.392 81.619 68.539 53.561 
81.82 68.633 53.718 82.035 68.726 53.861 82.265 68.816 53.991 
82.506 68.904 54.105 82.757 68.989 54.204 83.017 69.07 54.286 
83.284 69.145 54.351 83.557 69.215 54.398 83.833 69.28 54.426 
84.112 69.337 54.434 84.392 69.387 54.424 84.674 69.43 54.399 
84.956 69.467 54.36 85.237 69.496 54.31 85.518 69.518 54.25 
85.797 69.533 54.183 86.075 69.541 54.11 86.349 69.541 54.035 
86.621 69.535 53.958 86.888 69.52 53.882 87.152 69.499 53.807 
87.413 69.471 53.732 87.67 69.436 53.658 87.923 69.395 53.583 
88.173 69.348 53.508 88.421 69.296 53.432 88.665 69.238 53.356 
88.907 69.175 53.278 89.146 69.108 53.198 89.383 69.036 53.118 
89.618 68.96 53.036 89.852 68.878 52.955 90.085 68.791 52.876 
90.317 68.698 52.8 90.55 68.599 52.728 90.783 68.493 52.662 
91.017 68.381 52.603 91.253 68.261 52.551 91.491 68.134 52.509 
91.732 67.999 52.476 91.975 67.857 52.453 92.22 67.709 52.438 
92.467 67.556 52.431 92.716 67.397 52.43 92.966 67.235 52.433 
93.217 67.07 52.442 93.469 66.902 52.453 93.721 66.733 52.466 

LINES 2 438
OFFSETS vtktypeint64
0 438 
CONNECTIVITY vtktypeint64
0 1 2 3 4 5 6 7 8 
9 10 11 12 13 14 15 16 17 
18 19 20 21 22 23 24 25 26 
27 28 29 30 31 32 33 34 35 
36 37 38 39 40 41 42 43 44 
45 46 47 48 49 50 51 52 53 
54 55 56 57 58 59 60 61 62 
63 64 65 66 67 68 69 70 71 
72 73 74 75 76 77 78 79 80 
81 82 83 84 85 86 87 88 89 
90 91 92 93 94 95 96 97 98 
99 100 101 102 103 104 105 106 107 
108 109 110 111 112 113 114 115 116 
117 118 119 120 121 122 123 124 125 
126 127 128 129 130 131 132 133 134 
135 136 137 138 139 140 141 142 143 
144 145 146 147 148 149 150 151 152 
153 154 155 156 157 158 159 160 161 
162 163 164 165 166 167 168 169 170 
171 172 173 174 175 176 177 178 179 
180 181 182 183 184 185 186 187 188 
189 190 191 192 193 194 195 196 197 
198 199 200 201 202 203 204 205 206 
207 208 209 210 211 212 213 214 215 
216 217 218 219 220 221 222 223 224 
225 226 227 228 229 230 231 232 233 
234 235 236 237 238 239 240 241 242 
243 244 245 246 247 248 249 250 251 
252 253 254 255 256 257 258 259 260 
261 262 263 264 265 266 267 268 269 
270 271 272 273 274 275 276 277 278 
279 280 281 282 283 284 285 286 287 
288 289 290 291 292 293 294 295 296 
297 298 299 300 301 302 303 304 305 
306 307 308 309 310 311 312 313 314 
315 316 317 318 319 320 321 322 323 
324 325 326 327 328 329 330 331 332 
333 334 335 336 337 338 339 340 341 
342 343 344 345 346 347 348 349 350 
351 352 353 354 355 356 357 358 359 
360 361 362 363 364 365 366 367 368 
369 370 371 372 373 374 375 376 377 
378 379 380 381 382 383 384 385 386 
387 388 389 390 391 392 393 394 395 
396 397 398 399 400 401 402 403 404 
405 406 407 408 409 410 411 412 413 
414 415 416 417 418 419 420 421 422 
423 424 425 426 427 428 429 430 431 
432 433 434 435 436 437 
POINT_DATA 438
FIELD FieldData 2
curvature 1 438 double
0 0.011498 0.023018 0.034577 0.046189 0.057855 0.069565 0.081291 0.092986 
0.10458 0.11597 0.098948 0.082476 0.067255 0.054316 0.045281 0.042092 0.045284 
0.053068 0.063186 0.074158 0.060252 0.047668 0.036599 0.027789 0.023072 0.024507 
0.031225 0.040868 0.052133 0.064559 0.061151 0.057582 0.05388 0.050077 0.046212 
0.042335 0.038509 0.034818 0.031382 0.028363 0.025911 0.029307 0.03711 0.047222 
0.05842 0.070084 0.081855 0.093477 0.10473 0.11541 0.099374 0.089237 0.086399 
0.091569 0.10422 0.12324 0.14778 0.17756 0.2127 0.25355 0.23347 0.20926 
0.18309 0.15788 0.13734 0.1255 0.12483 0.13421 0.14977 0.16757 0.12859 
0.095406 0.069048 0.053481 0.054557 0.07014 0.093017 0.1194 0.14794 0.17808 
0.1837 0.18989 0.19655 0.20354 0.21069 0.21779 0.22463 0.23095 0.23648 
0.24097 0.22695 0.21377 0.20168 0.19085 0.18141 0.17344 0.16701 0.16217 
0.15896 0.15743 0.15689 0.1593 0.16464 0.1728 0.1836 0.19678 0.21199 
0.22883 0.24673 0.26496 0.22948 0.1941 0.161 0.13251 0.11174 0.10255 
0.10719 0.12372 0.14797 0.17644 0.14816 0.12061 0.09415 0.069392 0.048226 
0.037206 0.045539 0.06782 0.096521 0.12943 0.11233 0.093357 0.073175 0.052806 
0.034541 0.025573 0.034138 0.051351 0.070042 0.088066 0.077682 0.069272 0.062903 
0.058695 0.056752 0.057075 0.059527 0.063861 0.069807 0.077133 0.075683 0.074289 
0.072969 0.071743 0.070629 0.069646 0.068812 0.068144 0.067659 0.067369 0.073101 
0.080208 0.088361 0.097266 0.10666 0.11631 0.12599 0.13547 0.14453 0.15295 
0.13821 0.12511 0.11393 0.10495 0.098503 0.094876 0.094267 0.096701 0.10202 
0.10994 0.10456 0.1006 0.098372 0.098097 0.099862 0.10361 0.10913 0.11617 
0.12439 0.13344 0.12799 0.12476 0.12391 0.12549 0.12942 0.13554 0.1436 
0.15331 0.16433 0.17633 0.15413 0.13145 0.10884 0.086802 0.065859 0.046963 
0.032709 0.029297 0.038765 0.054223 0.043574 0.046067 0.059924 0.079804 0.10293 
0.12833 0.15566 0.18467 0.21494 0.24578 0.23517 0.22611 0.21932 0.21545 
0.215 0.21831 0.22553 0.23661 0.25128 0.26906 0.25936 0.24761 0.23436 
0.22015 0.20546 0.1907 0.17619 0.16218 0.14885 0.13633 0.12383 0.11331 
0.10496 0.099019 0.095736 0.095314 0.09785 0.10332 0.11161 0.12258 0.10323 
0.082643 0.061486 0.040824 0.023926 0.022632 0.037908 0.056943 0.076005 0.094067 
0.08003 0.068109 0.05847 0.051569 0.048095 0.048637 0.053244 0.061445 0.072706 
0.086755 0.095443 0.11289 0.13662 0.16395 0.1925 0.22011 0.24472 0.26455 
0.27822 0.28502 0.24394 0.22322 0.22082 0.23478 0.26314 0.30436 0.3573 
0.42039 0.49013 0.55923 0.52631 0.49123 0.4594 0.43449 0.41867 0.41301 
0.41774 0.43238 0.45559 0.48498 0.41526 0.33999 0.26709 0.20041 0.14148 
0.092476 0.063876 0.076354 0.11815 0.17176 0.1217 0.072018 0.040478 0.071367 
0.12861 0.19191 0.25683 0.31915 0.37307 0.41195 0.33775 0.28203 0.24518 
0.22785 0.23056 0.25282 0.29335 0.35091 0.42417 0.50966 0.46145 0.39841 
0.33106 0.26743 0.21344 0.17493 0.15889 0.16929 0.2018 0.24859 0.22457 
0.19876 0.17223 0.14575 0.11978 0.094552 0.070097 0.046318 0.02303 0.007617 
0.015228 0.022826 0.030404 0.037951 0.045455 0.052898 0.060261 0.06752 0.074646 
0.04757 0.02589 0.027394 0.050124 0.077575 0.10663 0.13669 0.16748 0.19862 
0.22952 0.2064 0.18255 0.1585 0.13461 0.11112 0.088104 0.065575 0.043463 
0.021653 0.030791 0.061867 0.093457 0.12568 0.15846 0.19146 0.22399 0.25497 
0.28291 0.30612 0.28488 0.26756 0.25421 0.24477 0.23913 0.23712 0.23857 
0.24323 0.25083 0.26102 0.23643 0.21139 0.18694 0.16391 0.14301 0.12504 
0.11105 0.10249 0.10091 0.10728 0.10529 0.10296 0.10033 0.097455 0.094385 
0.091179 0.087904 0.084629 0.08143 0.078383 0.075859 0.078409 0.085554 0.096124 
0.10886 0.12273 0.1369 0.15071 0.16361 0.17512 0.15239 0.13113 0.11131 
0.092824 0.075521 0.059215 0.043711 0.028808 0.014304 
torsion 1 438 double
0 2.51e-13 -4.67e-14 8e-14 -1.85e-14 4.55e-17 -3.43e-15 2.84e-15 3.83e-15 
1.54e-15 -0.11427 -0.15457 -0.21647 -0.31368 -0.45972 -0.62808 -0.68612 -0.55658 
-0.37853 -0.24803 0.15802 0.22184 0.33305 0.53839 0.9025 1.283 1.1301 
0.70133 0.4181 0.26589 0.06283 0.073736 0.087247 0.10419 0.12571 0.1534 
0.18942 0.23664 0.29848 0.378 0.47503 -1.5042 -1.1977 -0.75732 -0.47179 
-0.30918 -0.21407 -0.15519 -0.11667 -0.090224 -0.071313 -0.59364 -0.72612 -0.78226 
-0.72052 -0.58973 -0.45827 -0.35464 -0.27965 -0.22644 -0.18837 0.27694 0.38426 
0.53732 0.74526 0.98203 1.1375 1.0807 0.85558 0.61242 0.42485 -0.29377 
-0.47225 -0.81661 -1.2623 -1.151 -0.67529 -0.37973 -0.2318 -0.15385 -0.10909 
-0.13384 -0.12872 -0.12314 -0.11721 -0.11104 -0.10469 -0.098243 -0.09174 -0.085229 
-0.078755 0.033246 0.03552 0.037865 0.040253 0.042637 0.044942 0.047076 0.048929 
0.050389 0.05136 0.34926 0.34476 0.33118 0.31081 0.28641 0.26046 0.23476 
0.21035 0.1877 0.16689 -0.29513 -0.4052 -0.57209 -0.8176 -1.1156 -1.292 
-1.1609 -0.86031 -0.59539 -0.41363 -0.092314 -0.13736 -0.22387 -0.41398 -0.87339 
-1.5201 -1.07 -0.51814 -0.2797 -0.17289 0.085198 0.13309 0.22828 0.45147 
1.0632 1.9135 1.0376 0.43431 0.2167 0.12473 -0.23675 -0.27435 -0.31106 
-0.3387 -0.34814 -0.33512 -0.30378 -0.26347 -0.22273 -0.18639 -0.12929 -0.13757 
-0.146 -0.15449 -0.1629 -0.17108 -0.17884 -0.18601 -0.19239 -0.19778 0.49416 
0.41703 0.3481 0.28993 0.24213 0.20325 0.1716 0.1457 0.12433 0.10652 
-0.28463 -0.33276 -0.38667 -0.44216 -0.4911 -0.5225 -0.5272 -0.50362 -0.4589 
0.38477 0.43599 0.48111 0.51264 0.52409 0.51305 0.48241 0.43876 0.38935 
0.33988 -0.39089 -0.42177 -0.44209 -0.44812 -0.43866 -0.41562 -0.38312 -0.34587 
-0.30776 -0.27136 0.053263 0.069585 0.094101 0.13359 0.20306 0.33974 0.64255 
1.2738 1.5279 0.84049 1.1327 1.7047 1.5088 0.8976 0.51789 0.3233 
0.21863 0.15759 0.11924 0.093545 0.25689 0.292 0.32712 0.3595 0.38566 
0.40213 0.40661 0.3988 0.38048 0.35469 -0.053471 -0.059505 -0.06599 -0.073034 
-0.080784 -0.08944 -0.099252 -0.11053 -0.12366 -0.13909 0.23757 0.27491 0.31669 
0.36 0.3993 0.42701 0.43631 0.42489 0.39642 0.35814 -0.039941 -0.059918 
-0.097452 -0.18015 -0.41106 -1.1848 -1.2911 -0.44216 -0.18553 -0.097121 -0.040661 
-0.0517 -0.067074 -0.087297 -0.10988 -0.12625 -0.12598 -0.10958 -0.087658 -0.06823 
-0.37378 -0.34624 -0.27267 -0.20084 -0.14658 -0.10828 -0.081227 -0.061696 -0.047229 
-0.036287 0.26408 0.29397 0.30676 0.29198 0.25507 0.21132 0.17186 0.14027 
0.11583 0.096575 -0.030393 -0.034984 -0.039371 -0.04334 -0.046566 -0.048648 -0.049247 
-0.048244 -0.045806 -0.042302 0.07929 0.1049 0.14246 0.20451 0.32187 0.5831 
1.2701 2.5688 1.8028 0.78358 0.017056 0.036723 0.11239 0.38069 0.13117 
0.043206 0.020562 0.011887 0.0076368 0.0051898 -0.27482 -0.3343 -0.40689 -0.48018 
-0.52429 -0.51143 -0.44947 -0.37159 -0.30162 -0.24611 0.15392 0.20807 0.28199 
0.38964 0.55524 0.80923 1.1344 1.3243 1.1523 0.81903 2.04e-17 -1.06e-15 
-5.74e-16 -9.76e-16 1.94e-16 3.5e-15 -9.88e-15 2.05e-14 1.24e-14 -9.23e-14 -2.79e-13 
3.84e-14 -4.24e-14 -2.97e-14 -1.08e-14 -9.84e-15 -1.16e-14 2.24e-15 -1.05e-14 0.486 
1.1807 3.9628 3.5479 1.0709 0.45522 0.24676 0.15429 0.10559 0.076789 
-3.91e-15 -2.26e-15 5.56e-16 -7.95e-15 -1.64e-15 -2.51e-15 9.99e-15 -1.24e-15 -2.86e-14 
-1.69e-13 1.25e-13 1.51e-14 9.12e-15 -5e-15 -1.23e-15 -1.46e-15 1.7e-15 -8.31e-16 
1.27e-15 0.012715 0.013315 0.013819 0.014186 0.014372 0.014345 0.014094 0.013634 
0.012998 0.012233 0.1076 0.13124 0.16198 0.2031 0.25923 0.33624 0.43904 
0.56363 0.68169 0.73843 0.70035 -0.1 -0.112 -0.126 -0.14 -0.157 
-0.175 -0.194 -0.215 -0.237 -0.259 1.0091 0.94549 0.78963 0.61735 
0.471 0.35904 0.27627 0.21523 0.1697 0.135 3.57e-16 -1.43e-15 2.86e-15 
-2.63e-15 -6.07e-15 -4.78e-15 -6.1e-15 -3.61e-14 -1.68e-13 
