# vtk DataFile Version 5.1
vtk output
ASCII
DATASET POLYDATA
POINTS 367 float
76.247 99.281 0.28135 76.216 99.234 0.55603 76.186 99.188 0.83066 
76.153 99.145 1.1052 76.12 99.104 1.3795 76.084 99.068 1.6537 
76.045 99.037 1.9276 76.002 99.013 2.2011 75.956 98.996 2.4743 
75.904 98.988 2.7471 75.848 98.99 3.0194 75.786 99.002 3.2911 
75.719 99.023 3.5622 75.649 99.052 3.8323 75.574 99.087 4.1014 
75.497 99.127 4.3693 75.419 99.17 4.6358 75.34 99.214 4.9007 
75.26 99.258 5.1639 75.182 99.3 5.4252 75.105 99.34 5.6844 
75.03 99.374 5.9413 74.957 99.406 6.196 74.887 99.435 6.4485 
74.818 99.464 6.6988 74.751 99.493 6.9468 74.684 99.525 7.1926 
74.619 99.559 7.4363 74.555 99.598 7.6777 74.491 99.644 7.917 
74.428 99.696 8.1541 74.364 99.757 8.3891 74.301 99.825 8.6229 
74.239 99.898 8.8563 74.178 99.976 9.0902 74.117 100.06 9.3254 
74.058 100.14 9.5628 74.001 100.22 9.8033 73.946 100.29 10.048 
73.892 100.37 10.297 73.842 100.43 10.552 73.794 100.5 10.814 
73.748 100.55 11.081 73.705 100.6 11.354 73.663 100.64 11.631 
73.623 100.67 11.912 73.585 100.69 12.196 73.548 100.71 12.482 
73.512 100.72 12.771 73.476 100.72 13.059 73.441 100.72 13.349 
73.406 100.71 13.638 73.372 100.69 13.926 73.339 100.66 14.214 
73.308 100.62 14.5 73.278 100.58 14.784 73.251 100.54 15.067 
73.227 100.49 15.347 73.206 100.43 15.625 73.188 100.37 15.901 
73.175 100.3 16.173 73.166 100.23 16.443 73.163 100.15 16.709 
73.166 100.07 16.971 73.177 99.989 17.23 73.195 99.899 17.485 
73.222 99.805 17.737 73.259 99.707 17.984 73.307 99.604 18.228 
73.366 99.497 18.467 73.438 99.385 18.702 73.523 99.269 18.933 
73.62 99.147 19.159 73.728 99.021 19.379 73.847 98.89 19.594 
73.976 98.753 19.802 74.114 98.611 20.004 74.26 98.464 20.199 
74.414 98.31 20.386 74.574 98.15 20.565 74.739 97.983 20.736 
74.909 97.811 20.897 75.083 97.632 21.049 75.261 97.448 21.193 
75.442 97.259 21.327 75.626 97.065 21.451 75.812 96.867 21.567 
75.999 96.665 21.673 76.188 96.461 21.77 76.377 96.253 21.857 
76.566 96.044 21.934 76.754 95.833 22.002 76.943 95.621 22.061 
77.133 95.411 22.11 77.325 95.202 22.15 77.519 94.997 22.182 
77.717 94.797 22.205 77.918 94.602 22.219 78.125 94.415 22.225 
78.337 94.236 22.223 78.555 94.066 22.213 78.78 93.908 22.196 
79.012 93.758 22.173 79.249 93.617 22.145 79.491 93.483 22.113 
79.737 93.355 22.079 79.986 93.23 22.045 80.238 93.109 22.012 
80.492 92.988 21.981 80.747 92.868 21.954 81.003 92.747 21.931 
81.258 92.624 21.915 81.513 92.498 21.905 81.767 92.371 21.9 
82.021 92.244 21.899 82.275 92.116 21.901 82.529 91.988 21.907 
82.783 91.862 21.914 83.036 91.737 21.922 83.29 91.615 21.931 
83.543 91.495 21.94 83.796 91.378 21.948 84.049 91.265 21.956 
84.303 91.154 21.965 84.556 91.046 21.975 84.809 90.939 21.987 
85.062 90.835 22.003 85.314 90.731 22.023 85.567 90.629 22.047 
85.82 90.526 22.077 86.072 90.425 22.113 86.325 90.323 22.157 
86.576 90.221 22.208 86.825 90.119 22.269 87.072 90.018 22.338 
87.316 89.917 22.418 87.555 89.817 22.509 87.789 89.719 22.611 
88.017 89.621 22.726 88.239 89.525 22.853 88.452 89.431 22.994 
88.658 89.339 23.149 88.855 89.248 23.316 89.043 89.159 23.494 
89.223 89.071 23.68 89.392 88.983 23.873 89.553 88.896 24.07 
89.703 88.81 24.27 89.844 88.724 24.47 89.974 88.637 24.669 
90.094 88.55 24.864 90.204 88.462 25.055 90.303 88.375 25.243 
90.393 88.289 25.43 90.473 88.206 25.618 90.546 88.128 25.811 
90.61 88.055 26.009 90.667 87.988 26.216 90.718 87.929 26.433 
90.762 87.88 26.664 90.8 87.84 26.909 90.834 87.812 27.171 
90.862 87.794 27.448 90.885 87.785 27.737 90.903 87.785 28.035 
90.916 87.791 28.34 90.924 87.804 28.649 90.926 87.822 28.958 
90.923 87.844 29.266 90.915 87.869 29.57 90.902 87.895 29.866 
90.883 87.922 30.153 90.86 87.95 30.431 90.834 87.977 30.704 
90.806 88.002 30.971 90.776 88.026 31.235 90.747 88.048 31.497 
90.719 88.066 31.759 90.692 88.081 32.023 90.669 88.091 32.291 
90.651 88.096 32.563 90.637 88.096 32.842 90.627 88.089 33.125 
90.62 88.072 33.412 90.614 88.046 33.701 90.609 88.008 33.988 
90.602 87.956 34.274 90.593 87.89 34.557 90.58 87.808 34.833 
90.561 87.708 35.103 90.537 87.588 35.363 90.505 87.448 35.613 
90.467 87.29 35.853 90.424 87.115 36.081 90.378 86.926 36.298 
90.33 86.725 36.505 90.281 86.515 36.699 90.233 86.297 36.883 
90.188 86.074 37.055 90.146 85.849 37.215 90.109 85.623 37.364 
90.079 85.398 37.501 90.055 85.174 37.626 90.035 84.951 37.739 
90.018 84.727 37.839 90.004 84.502 37.925 89.991 84.275 37.999 
89.979 84.045 38.059 89.966 83.812 38.106 89.951 83.576 38.138 
89.933 83.334 38.156 89.912 83.087 38.159 89.886 82.835 38.15 
89.856 82.58 38.128 89.821 82.322 38.097 89.781 82.062 38.057 
89.737 81.801 38.01 89.687 81.54 37.957 89.631 81.28 37.901 
89.569 81.021 37.842 89.502 80.766 37.782 89.428 80.514 37.722 
89.35 80.264 37.664 89.271 80.015 37.606 89.191 79.764 37.55 
89.115 79.512 37.496 89.043 79.256 37.443 88.979 78.995 37.393 
88.924 78.728 37.346 88.881 78.452 37.301 88.852 78.166 37.259 
88.838 77.871 37.222 88.841 77.568 37.189 88.861 77.262 37.163 
88.897 76.957 37.145 88.95 76.656 37.137 89.02 76.363 37.14 
89.107 76.083 37.156 89.211 75.818 37.187 89.333 75.573 37.234 
89.472 75.352 37.299 89.629 75.157 37.382 89.801 74.989 37.483 
89.987 74.847 37.598 90.183 74.728 37.724 90.387 74.633 37.86 
90.598 74.56 38.002 90.813 74.507 38.148 91.029 74.475 38.295 
91.244 74.462 38.442 91.456 74.466 38.584 91.664 74.487 38.721 
91.867 74.523 38.852 92.067 74.574 38.976 92.264 74.64 39.095 
92.461 74.718 39.207 92.658 74.809 39.313 92.856 74.91 39.412 
93.057 75.023 39.506 93.261 75.144 39.594 93.469 75.275 39.675 
93.684 75.413 39.751 93.901 75.558 39.822 94.121 75.71 39.892 
94.341 75.867 39.96 94.559 76.028 40.03 94.773 76.194 40.103 
94.982 76.362 40.181 95.184 76.533 40.266 95.377 76.705 40.36 
95.559 76.879 40.465 95.728 77.052 40.581 95.885 77.226 40.708 
96.029 77.4 40.844 96.159 77.576 40.988 96.277 77.754 41.139 
96.383 77.934 41.295 96.475 78.117 41.454 96.555 78.303 41.616 
96.621 78.493 41.778 96.675 78.688 41.939 96.716 78.887 42.098 
96.744 79.09 42.255 96.76 79.296 42.41 96.764 79.505 42.565 
96.757 79.716 42.719 96.739 79.928 42.873 96.711 80.14 43.027 
96.672 80.352 43.182 96.623 80.563 43.339 96.565 80.772 43.497 
96.498 80.979 43.658 96.422 81.185 43.819 96.338 81.388 43.981 
96.246 81.591 44.141 96.146 81.792 44.298 96.038 81.994 44.451 
95.924 82.196 44.599 95.802 82.398 44.741 95.674 82.602 44.875 
95.539 82.808 45 95.399 83.015 45.115 95.253 83.224 45.221 
95.103 83.434 45.319 94.948 83.646 45.41 94.79 83.86 45.494 
94.629 84.074 45.574 94.465 84.289 45.649 94.3 84.505 45.721 
94.133 84.721 45.791 93.779 84.933 45.977 93.592 84.928 46.093 
93.404 84.924 46.21 93.216 84.921 46.326 93.026 84.919 46.443 
92.834 84.919 46.56 92.64 84.92 46.676 92.444 84.923 46.793 
92.245 84.929 46.91 92.043 84.937 47.027 91.838 84.948 47.144 
91.63 84.96 47.263 91.422 84.971 47.382 91.214 84.981 47.504 
91.008 84.988 47.629 90.805 84.989 47.757 90.606 84.984 47.889 
90.413 84.971 48.027 90.227 84.949 48.17 90.048 84.915 48.319 
89.879 84.869 48.475 89.718 84.812 48.638 89.564 84.744 48.806 
89.418 84.668 48.979 89.276 84.584 49.156 89.14 84.493 49.337 
89.007 84.398 49.52 88.877 84.299 49.706 88.395 83.919 50.118 
88.877 84.299 49.706 89.007 84.398 49.52 89.14 84.493 49.337 
89.276 84.584 49.156 89.418 84.668 48.979 89.564 84.744 48.806 
89.718 84.812 48.638 89.879 84.869 48.475 90.048 84.915 48.319 
90.227 84.949 48.17 90.413 84.971 48.027 90.606 84.984 47.889 
90.805 84.989 47.757 91.008 84.988 47.629 91.214 84.981 47.504 
91.422 84.971 47.382 91.63 84.96 47.263 91.838 84.948 47.144 
92.043 84.937 47.027 92.245 84.929 46.91 92.444 84.923 46.793 
92.64 84.92 46.676 92.834 84.919 46.56 93.026 84.919 46.443 
93.216 84.921 46.326 93.404 84.924 46.21 93.592 84.928 46.093 
93.779 84.933 45.977 
LINES 2 367
OFFSETS vtktypeint64
0 367 
CONNECTIVITY vtktypeint64
0 1 2 3 4 5 6 7 8 
9 10 11 12 13 14 15 16 17 
18 19 20 21 22 23 24 25 26 
27 28 29 30 31 32 33 34 35 
36 37 38 39 40 41 42 43 44 
45 46 47 48 49 50 51 52 53 
54 55 56 57 58 59 60 61 62 
63 64 65 66 67 68 69 70 71 
72 73 74 75 76 77 78 79 80 
81 82 83 84 85 86 87 88 89 
90 91 92 93 94 95 96 97 98 
99 100 101 102 103 104 105 106 107 
108 109 110 111 112 113 114 115 116 
117 118 119 120 121 122 123 124 125 
126 127 128 129 130 131 132 133 134 
135 136 137 138 139 140 141 142 143 
144 145 146 147 148 149 150 151 152 
153 154 155 156 157 158 159 160 161 
162 163 164 165 166 167 168 169 170 
171 172 173 174 175 176 177 178 179 
180 181 182 183 184 185 186 187 188 
189 190 191 192 193 194 195 196 197 
198 199 200 201 202 203 204 205 206 
207 208 209 210 211 212 213 214 215 
216 217 218 219 220 221 222 223 224 
225 226 227 228 229 230 231 232 233 
234 235 236 237 238 239 240 241 242 
243 244 245 246 247 248 249 250 251 
252 253 254 255 256 257 258 259 260 
261 262 263 264 265 266 267 268 269 
270 271 272 273 274 275 276 277 278 
279 280 281 282 283 284 285 286 287 
288 289 290 291 292 293 294 295 296 
297 298 299 300 301 302 303 304 305 
306 307 308 309 310 311 312 313 314 
315 316 317 318 319 320 321 322 323 
324 325 326 327 328 329 330 331 332 
333 334 335 336 337 338 339 340 341 
342 343 344 345 346 347 348 349 350 
351 352 353 354 355 356 357 358 359 
360 361 362 363 364 365 366 
POINT_DATA 367
FIELD FieldData 2
curvature 1 367 double
0.058264 0.057939 0.057569 0.057146 0.056661 0.056104 0.055467 0.054478 0.053621 
0.052657 0.051577 0.050376 0.049049 0.047074 0.045436 0.043663 0.041753 0.03971 
0.037537 0.034448 0.031998 0.029444 0.026799 0.024081 0.021315 0.017627 0.014951 
0.012493 0.010493 0.0093489 0.0094668 0.011578 0.014152 0.017205 0.020549 0.024082 
0.027743 0.032759 0.036591 0.040461 0.044354 0.048258 0.052158 0.057337 0.061192 
0.065011 0.068787 0.072513 0.076183 0.080981 0.084504 0.087958 0.091342 0.094655 
0.097897 0.10211 0.10518 0.10818 0.11111 0.11396 0.11673 0.12031 0.12289 
0.12538 0.12779 0.13009 0.13229 0.13504 0.13698 0.13878 0.14045 0.14197 
0.14333 0.14488 0.14583 0.14659 0.14715 0.14749 0.14763 0.14754 0.14706 
0.14643 0.14555 0.14443 0.14307 0.14146 0.13893 0.13675 0.13433 0.13167 
0.12879 0.12569 0.12124 0.11768 0.11394 0.11003 0.10597 0.10179 0.096024 
0.091593 0.087087 0.082526 0.077929 0.073317 0.067182 0.062623 0.058133 0.053748 
0.049511 0.045477 0.040536 0.037278 0.034532 0.032432 0.03111 0.030669 0.031508 
0.033145 0.035524 0.038517 0.042002 0.045878 0.051525 0.056048 0.060774 0.065676 
0.070735 0.075935 0.083067 0.088551 0.09414 0.099821 0.10558 0.1114 0.11922 
0.12508 0.13092 0.13668 0.14232 0.1478 0.15475 0.15962 0.16412 0.16817 
0.17173 0.17471 0.17767 0.17907 0.17972 0.17958 0.17865 0.17694 0.17347 
0.17004 0.16596 0.16129 0.1561 0.15046 0.14443 0.13588 0.12917 0.12223 
0.11514 0.10792 0.10064 0.090919 0.083701 0.076636 0.069813 0.063341 0.057356 
0.050446 0.046372 0.043552 0.042254 0.042645 0.044728 0.049862 0.055184 0.061526 
0.068726 0.076665 0.085261 0.097637 0.10754 0.11793 0.12875 0.13993 0.15138 
0.16687 0.17849 0.1899 0.2009 0.21125 0.22069 0.23142 0.23772 0.24227 
0.24491 0.24552 0.2441 0.23913 0.23329 0.22587 0.21714 0.20736 0.1968 
0.18196 0.17051 0.15901 0.1476 0.13637 0.12543 0.11141 0.1014 0.091905 
0.083021 0.07488 0.067668 0.059962 0.056064 0.054193 0.054625 0.057425 0.062446 
0.072145 0.081351 0.092023 0.10408 0.11748 0.13225 0.15412 0.17221 0.19179 
0.21284 0.23531 0.25905 0.2838 0.31764 0.3429 0.36724 0.38974 0.40942 
0.42535 0.4393 0.44355 0.44221 0.43545 0.4238 0.40809 0.38247 0.36104 
0.33874 0.31634 0.29445 0.27346 0.24735 0.22937 0.21284 0.19781 0.18425 
0.17213 0.15815 0.14922 0.14159 0.1352 0.13001 0.12595 0.12221 0.12056 
0.1198 0.11984 0.12061 0.12199 0.12464 0.12713 0.12996 0.13304 0.13631 
0.13969 0.14424 0.14761 0.15086 0.15393 0.15676 0.1593 0.16216 0.16385 
0.1651 0.1659 0.16622 0.16605 0.16505 0.16375 0.16199 0.1598 0.15721 
0.15427 0.14987 0.14626 0.14245 0.13847 0.13436 0.13016 0.1245 0.12024 
0.116 0.1118 0.10767 0.091408 0.092603 0.094957 0.097248 0.098365 0.10053 
0.10259 0.10357 0.10543 0.10713 0.10865 0.10934 0.11058 0.11159 0.11202 
0.11269 0.11311 0.11324 0.11329 0.1131 0.11265 0.11234 0.11154 0.11051 
0.10991 0.10856 0.10703 0.10619 0.1044 0.10246 0.1044 0.10619 0.10703 
0.10856 0.10991 0.11051 0.11154 0.11234 0.11265 0.1131 0.11329 0.11324 
0.11311 0.11269 0.11202 0.11159 0.11058 0.10934 0.10865 0.10713 0.10543 
0.10357 0.10259 0.10053 0.098365 0.097248 0.094957 0.092603 
torsion 1 367 double
0.0059117 0.0061484 0.0065067 0.0069967 0.0076286 0.0084121 0.0093633 0.010921 0.012312 
0.013925 0.015797 0.017934 0.020383 0.024271 0.027723 0.031754 0.036545 0.0423 
0.049301 0.061389 0.073439 0.089268 0.11066 0.14047 0.18346 0.27596 0.39128 
0.57144 0.82537 1.0587 1.0487 0.71189 0.47964 0.32477 0.22623 0.16231 
0.11915 0.080521 0.06025 0.0447 0.032398 0.022378 0.01402 0.0048262 -0.0010329 
-0.0062195 -0.01077 -0.014839 -0.018545 -0.022835 -0.025647 -0.028194 -0.030409 -0.03232 
-0.03398 -0.03578 -0.036816 -0.037618 -0.038198 -0.038559 -0.03872 -0.038666 -0.038468 
-0.038144 -0.037719 -0.037265 -0.036782 -0.036114 -0.035678 -0.03531 -0.035012 -0.034842 
-0.034817 -0.035015 -0.035377 -0.035939 -0.036707 -0.037686 -0.038881 -0.040302 -0.042539 
-0.044443 -0.046557 -0.048876 -0.051335 -0.053952 -0.057701 -0.060626 -0.063658 -0.066826 
-0.070077 -0.07342 -0.078086 -0.08176 -0.085619 -0.089721 -0.094148 -0.098989 -0.10626 
-0.11255 -0.11979 -0.1282 -0.13808 -0.14989 -0.16948 -0.18789 -0.21048 -0.23827 
-0.27243 -0.31428 -0.38345 -0.44457 -0.50968 -0.57024 -0.6133 -0.62615 -0.58912 
-0.53064 -0.46099 -0.39163 -0.32895 -0.27527 -0.21747 -0.18293 -0.15444 -0.13085 
-0.11113 -0.094448 -0.075971 -0.064297 -0.054059 -0.045026 -0.036965 -0.029671 -0.020958 
-0.015057 -0.0095709 -0.0045056 0.00012525 0.0044027 0.0095869 0.013036 0.016158 0.018957 
0.021338 0.023325 0.025372 0.026332 0.026795 0.026772 0.02626 0.025253 0.023137 
0.021052 0.018561 0.015635 0.012235 0.0083076 0.0037849 -0.0034433 -0.010107 -0.018103 
-0.027748 -0.03943 -0.053782 -0.078445 -0.10179 -0.13074 -0.16709 -0.21241 -0.26827 
-0.35921 -0.43355 -0.49909 -0.53659 -0.53203 -0.48806 -0.39708 -0.32658 -0.26438 
-0.21284 -0.1713 -0.13816 -0.10401 -0.084057 -0.067877 -0.054567 -0.043451 -0.034228 
-0.024245 -0.018095 -0.012958 -0.0086965 -0.0051805 -0.0023756 0.00028205 0.0015209 0.002107 
0.0020204 0.0012711 -0.00012425 -0.0029319 -0.0057644 -0.0092069 -0.013159 -0.017676 -0.022843 
-0.030835 -0.037863 -0.04605 -0.055692 -0.067238 -0.081324 -0.10532 -0.12858 -0.1581 
-0.1954 -0.24191 -0.29849 -0.38487 -0.44502 -0.48266 -0.48307 -0.44627 -0.38704 
-0.3022 -0.24682 -0.2015 -0.16547 -0.13699 -0.11441 -0.091118 -0.07755 -0.066466 
-0.057232 -0.049445 -0.042804 -0.037008 -0.030392 -0.026314 -0.02286 -0.019974 -0.017675 
-0.015941 -0.014486 -0.013994 -0.014013 -0.014548 -0.015608 -0.017195 -0.02011 -0.022688 
-0.025524 -0.028647 -0.032063 -0.035794 -0.041369 -0.045969 -0.050859 -0.056085 -0.061641 
-0.067422 -0.075403 -0.081402 -0.086924 -0.091724 -0.095561 -0.098181 -0.099474 -0.098697 
-0.096598 -0.093321 -0.089013 -0.084006 -0.076748 -0.071021 -0.06527 -0.059658 -0.054198 
-0.048912 -0.042249 -0.037504 -0.032979 -0.028778 -0.024867 -0.021216 -0.016786 -0.013776 
-0.011017 -0.0085108 -0.006254 -0.00424 -0.0019652 -0.0005837 0.00052476 0.0013896 0.0020403 
0.0024829 0.0027964 0.0028834 0.0028537 0.0027304 0.00257 0.0023798 0.0020957 0.0018986 
0.0017209 0.0015626 0.0014329 -7.91e-07 -8.34e-07 -8.92e-07 -9.12e-07 -9.06e-07 -8.61e-07 
-7.7e-07 -6.88e-07 -3.76e-07 1.42e-07 8.73e-07 1.32e-06 2.38e-06 3.51e-06 4.06e-06 
5.09e-06 6.04e-06 6.49e-06 7.31e-06 7.96e-06 8.36e-06 8.46e-06 8.48e-06 8.24e-06 
8.04e-06 7.57e-06 7.12e-06 6.9e-06 6.46e-06 6.05e-06 6.46e-06 6.9e-06 7.12e-06 
7.57e-06 8.04e-06 8.24e-06 8.48e-06 8.46e-06 8.36e-06 7.96e-06 7.31e-06 6.49e-06 
6.04e-06 5.09e-06 4.06e-06 3.51e-06 2.38e-06 1.32e-06 8.73e-07 1.42e-07 -3.76e-07 
-6.88e-07 -7.7e-07 -8.61e-07 -9.06e-07 -9.12e-07 -8.92e-07 -8.34e-07 
