# vtk DataFile Version 5.1
vtk output
ASCII
DATASET POLYDATA
POINTS 377 float
63 99.8438 0.844055 62.9457 99.8978 1.11293 62.8911 99.9523 1.38149 
62.8357 100.008 1.64939 62.7793 100.064 1.91633 62.7214 100.123 2.18196 
62.6616 100.183 2.44597 62.5997 100.246 2.70803 62.5352 100.311 2.96781 
62.4678 100.38 3.225 62.3971 100.453 3.47927 62.3229 100.53 3.73041 
62.2453 100.61 3.97865 62.1648 100.693 4.22438 62.0816 100.778 4.46793 
61.9961 100.865 4.70968 61.9086 100.952 4.94998 61.8194 101.039 5.18919 
61.7289 101.126 5.42768 61.6374 101.211 5.66581 61.5453 101.294 5.90392 
61.4528 101.374 6.14234 61.3602 101.452 6.38117 61.2676 101.528 6.62047 
61.1752 101.601 6.86028 61.0833 101.671 7.10066 60.9921 101.74 7.34166 
60.9016 101.807 7.58335 60.8121 101.872 7.82577 60.7239 101.935 8.06899 
60.637 101.997 8.31304 60.5516 102.057 8.55805 60.4674 102.115 8.80437 
60.3843 102.171 9.0524 60.3018 102.222 9.30256 60.2197 102.269 9.55524 
60.1378 102.312 9.81086 60.0556 102.348 10.0698 59.9729 102.378 10.3326 
59.8894 102.401 10.5994 59.8049 102.415 10.8709 59.7192 102.421 11.147 
59.6332 102.419 11.4265 59.5481 102.409 11.7079 59.4651 102.392 11.9896 
59.3851 102.367 12.27 59.3094 102.336 12.5476 59.2391 102.298 12.8208 
59.1754 102.255 13.088 59.1192 102.206 13.3477 59.0719 102.153 13.5984 
59.0341 102.094 13.8389 59.0051 102.032 14.0706 58.9842 101.964 14.2951 
58.9701 101.892 14.5143 58.962 101.816 14.7299 58.9588 101.735 14.9435 
58.9595 101.65 15.1571 58.9632 101.56 15.3723 58.9689 101.466 15.5908 
58.9755 101.367 15.8146 58.9826 101.264 16.0446 58.9918 101.156 16.28 
59.0053 101.046 16.5193 59.0252 100.932 16.7608 59.0537 100.816 17.003 
59.0929 100.698 17.2444 59.1449 100.578 17.4834 59.212 100.457 17.7186 
59.2962 100.336 17.9483 59.3997 100.215 18.171 59.5239 100.094 18.3855 
59.6672 99.9737 18.5915 59.8274 99.8527 18.789 60.0019 99.7309 18.9782 
60.1886 99.6081 19.1591 60.385 99.4838 19.3317 60.5889 99.3575 19.4962 
60.7978 99.2289 19.6524 61.0095 99.0976 19.8006 61.2216 98.9632 19.9407 
61.4322 98.8253 20.0728 61.6412 98.6838 20.1974 61.8488 98.5384 20.3147 
62.0553 98.3891 20.4252 62.261 98.2357 20.5293 62.4661 98.078 20.6274 
62.6709 97.9159 20.7198 62.8756 97.7493 20.807 63.0807 97.5781 20.8893 
63.2862 97.402 20.9672 63.4925 97.2211 21.0409 63.7 97.0368 21.1105 
63.9091 96.8503 21.1759 64.12 96.6633 21.237 64.3332 96.477 21.2938 
64.549 96.293 21.3462 64.7677 96.1126 21.3942 64.9899 95.9374 21.4376 
65.2157 95.7688 21.4765 65.4457 95.6083 21.5107 65.6799 95.4566 21.5403 
65.9179 95.3125 21.5656 66.1588 95.174 21.5871 66.4019 95.0393 21.6051 
66.6464 94.9065 21.6202 66.8917 94.7735 21.6327 67.137 94.6386 21.6431 
67.3814 94.4998 21.6518 67.6244 94.3552 21.6592 67.865 94.2028 21.6658 
68.1028 94.0415 21.6721 68.3382 93.8726 21.6784 68.5717 93.698 21.6851 
68.8039 93.5198 21.6928 69.0353 93.34 21.7018 69.2666 93.1606 21.7125 
69.4983 92.9835 21.7254 69.731 92.8108 21.741 69.9652 92.6445 21.7596 
70.2015 92.4865 21.7816 70.4403 92.3382 21.8075 70.6809 92.1983 21.8373 
70.9224 92.0649 21.8709 71.1639 91.9359 21.9083 71.4046 91.8094 21.9495 
71.6434 91.6835 21.9944 71.8796 91.5561 22.043 72.1122 91.4253 22.0953 
72.3403 91.2891 22.1512 72.5631 91.1456 22.2107 72.7799 90.9933 22.274 
72.9913 90.8333 22.3417 73.1981 90.6671 22.4148 73.4012 90.4961 22.4944 
73.6013 90.3221 22.5812 73.7995 90.1464 22.6763 73.9964 89.9707 22.7806 
74.1929 89.7965 22.895 74.3899 89.6253 23.0204 74.5881 89.4587 23.1578 
74.7881 89.2979 23.3079 74.9879 89.143 23.4697 75.1855 88.9937 23.6422 
75.3785 88.8497 23.8243 75.5649 88.7109 24.0148 75.7423 88.5769 24.2126 
75.9086 88.4474 24.4166 76.0615 88.3223 24.6256 76.1989 88.2013 24.8386 
76.3185 88.0842 25.0544 76.4188 87.9708 25.2721 76.5013 87.8618 25.4922 
76.568 87.7581 25.7153 76.6212 87.6606 25.9421 76.6629 87.5702 26.1731 
76.6953 87.4876 26.4091 76.7206 87.4138 26.6507 76.7408 87.3497 26.8985 
76.7581 87.296 27.1533 76.7746 87.2538 27.4156 76.7921 87.2235 27.6859 
76.8109 87.2044 27.9633 76.8307 87.1959 28.2467 76.8513 87.1968 28.5351 
76.8727 87.2063 28.8274 76.8947 87.2235 29.1224 76.917 87.2475 29.4191 
76.9396 87.2773 29.7163 76.9622 87.3121 30.0131 76.9848 87.3509 30.3082 
77.0072 87.3928 30.6008 77.0302 87.4363 30.8908 77.0543 87.4801 31.1782 
77.0803 87.5228 31.463 77.1091 87.5628 31.7453 77.1413 87.5987 32.0252 
77.1776 87.6291 32.3027 77.2188 87.6525 32.5778 77.2656 87.6676 32.8506 
77.3188 87.6728 33.1211 77.3786 87.6669 33.3894 77.4434 87.6493 33.6551 
77.5113 87.6194 33.9179 77.5802 87.5768 34.1775 77.648 87.5209 34.4334 
77.7127 87.4513 34.6854 77.7722 87.3675 34.9331 77.8246 87.2691 35.1762 
77.8678 87.1554 35.4142 77.8998 87.0261 35.6469 77.9191 86.881 35.8738 
77.927 86.7209 36.0938 77.9253 86.5472 36.306 77.9158 86.3612 36.5093 
77.9003 86.164 36.7024 77.8806 85.957 36.8844 77.8587 85.7414 37.0541 
77.8363 85.5185 37.2105 77.8152 85.2894 37.3525 77.7973 85.0556 37.4789 
77.7839 84.818 37.5891 77.7739 84.5769 37.6836 77.766 84.3324 37.7637 
77.7585 84.0844 37.8303 77.75 83.833 37.8844 77.7389 83.5782 37.9271 
77.7239 83.3201 37.9594 77.7032 83.0587 37.9825 77.6755 82.7941 37.9972 
77.6392 82.5263 38.0048 77.5933 82.2554 38.006 77.5384 81.9819 38.0016 
77.4755 81.7064 37.992 77.4057 81.4296 37.9777 77.3301 81.1519 37.9592 
77.2498 80.874 37.937 77.1657 80.5964 37.9116 77.079 80.3198 37.8835 
76.9908 80.0448 37.8532 76.902 79.7719 37.8211 76.814 79.5015 37.7881 
76.7283 79.2335 37.756 76.6467 78.9674 37.7269 76.5712 78.7029 37.703 
76.5035 78.4395 37.6862 76.4454 78.1769 37.6787 76.3987 77.9146 37.6827 
76.3652 77.6523 37.7002 76.3468 77.3896 37.7334 76.3452 77.1261 37.7843 
76.3619 76.862 37.8545 76.3972 76.5999 37.9426 76.4506 76.3429 38.0468 
76.5221 76.0942 38.1652 76.6115 75.8569 38.2959 76.7184 75.6344 38.437 
76.8429 75.4297 38.5866 76.9845 75.2459 38.7428 77.1432 75.0864 38.9038 
77.3186 74.9542 39.0677 77.5104 74.8518 39.2325 77.7164 74.7785 39.3962 
77.9345 74.7333 39.5567 78.1623 74.7147 39.7121 78.3975 74.7215 39.8603 
78.6378 74.7524 39.9991 78.881 74.8062 40.1267 79.1247 74.8815 40.2408 
79.3666 74.977 40.3395 79.6044 75.0915 40.4208 79.8362 75.2235 40.4837 
80.0614 75.3708 40.532 80.2798 75.5309 40.571 80.4911 75.7014 40.6054 
80.6951 75.8798 40.6405 80.8916 76.0638 40.6811 81.0803 76.2508 40.7324 
81.261 76.4385 40.7994 81.4335 76.6244 40.887 81.5976 76.806 41.0004 
81.7527 76.9817 41.1429 81.8974 77.1522 41.3119 82.0302 77.319 41.5031 
82.1492 77.4836 41.7122 82.2528 77.6476 41.9349 82.3393 77.8124 42.1668 
82.4071 77.9795 42.4039 82.4545 78.1504 42.6416 82.4798 78.3267 42.8759 
82.4813 78.5098 43.1023 82.4581 78.7007 43.3174 82.4113 78.8982 43.5211 
82.3432 79.1006 43.7141 82.2557 79.3061 43.897 82.1507 79.5132 44.0705 
82.0304 79.72 44.2352 81.8967 79.9248 44.392 81.7516 80.126 44.5413 
81.5972 80.3217 44.684 81.4354 80.5104 44.8206 81.2679 80.6906 44.9518 
81.095 80.8624 45.0776 80.9165 81.0262 45.1978 80.7324 81.1823 45.3124 
80.5426 81.3311 45.4213 80.3469 81.473 45.5243 80.1453 81.6084 45.6215 
79.9377 81.7376 45.7126 79.724 81.8611 45.7976 79.504 81.9792 45.8764 
79.2779 82.0924 45.949 79.0461 82.2011 46.016 78.8092 82.3058 46.0779 
78.5679 82.407 46.1354 78.3228 82.5052 46.1891 78.0745 82.6009 46.2397 
77.8237 82.6946 46.2877 77.571 82.7868 46.3339 77.3171 82.878 46.3788 
76.8761 82.9256 46.4721 76.6896 82.8823 46.5207 76.5031 82.8386 46.5683 
76.3166 82.7943 46.6145 76.1301 82.7493 46.6588 75.9435 82.7034 46.7008 
75.7568 82.6564 46.7398 75.5701 82.608 46.7756 75.3833 82.5582 46.8075 
75.1964 82.5067 46.8352 75.0095 82.4533 46.8584 74.8231 82.3977 46.8786 
74.6377 82.3394 46.8972 74.4539 82.278 46.916 74.2722 82.2132 46.9367 
74.0933 82.1446 46.9607 73.9176 82.0717 46.9899 73.7457 81.9941 47.0258 
73.5782 81.9115 47.0701 73.4156 81.8234 47.1244 73.2584 81.7296 47.1898 
73.1061 81.6305 47.2658 72.9582 81.5268 47.3511 72.8142 81.419 47.4445 
72.6734 81.3077 47.5449 72.5354 81.1934 47.6512 72.3996 81.0768 47.7621 
72.2655 80.9584 47.8765 71.7789 80.5911 48.0143 71.5578 80.463 47.9182 
71.3365 80.3336 47.8238 71.115 80.2026 47.7318 70.8933 80.0693 47.643 
70.6713 79.9331 47.5584 70.4489 79.7935 47.4786 70.226 79.65 47.4045 
70.0027 79.5019 47.337 69.7788 79.3486 47.2767 69.5543 79.19 47.2242 
69.3293 79.0269 47.1779 69.1039 78.8607 47.1358 68.8782 78.6927 47.0961 
68.6524 78.5241 47.0569 68.4265 78.3561 47.0161 68.2006 78.1902 46.9718 
67.975 78.0275 46.9222 67.7496 77.8694 46.8652 67.5246 77.7171 46.799 
67.3002 77.5714 46.7223 67.0766 77.4309 46.6364 66.8541 77.2937 46.5434 
66.6329 77.1581 46.4453 66.4134 77.022 46.3442 66.1959 76.8837 46.2422 
65.9806 76.7412 46.1411 65.7679 76.5927 46.0432 65.5579 76.4364 45.9503 
65.3511 76.2702 45.8647 65.1476 76.093 45.7875 64.9474 75.9056 45.7178 
64.7504 75.7095 45.6535 64.5565 75.5062 45.5929 64.3657 75.2973 45.5342 
64.1779 75.0841 45.4754 63.9929 74.8682 45.4147 63.8106 74.651 45.3503 
63.6311 74.4341 45.2804 63.4541 74.2189 45.2031 63.2797 74.0066 45.117 
63.1075 73.7972 45.0225 62.9373 73.5904 44.9207 62.7689 73.3858 44.8124 
62.602 73.1832 44.6985 62.4363 72.9821 44.5801 62.2717 72.7823 44.4579 
62.1078 72.5835 44.333 61.9444 72.3853 44.2062 
LINES 2 377
OFFSETS vtktypeint64
0 377 
CONNECTIVITY vtktypeint64
0 1 2 3 4 5 6 7 8 
9 10 11 12 13 14 15 16 17 
18 19 20 21 22 23 24 25 26 
27 28 29 30 31 32 33 34 35 
36 37 38 39 40 41 42 43 44 
45 46 47 48 49 50 51 52 53 
54 55 56 57 58 59 60 61 62 
63 64 65 66 67 68 69 70 71 
72 73 74 75 76 77 78 79 80 
81 82 83 84 85 86 87 88 89 
90 91 92 93 94 95 96 97 98 
99 100 101 102 103 104 105 106 107 
108 109 110 111 112 113 114 115 116 
117 118 119 120 121 122 123 124 125 
126 127 128 129 130 131 132 133 134 
135 136 137 138 139 140 141 142 143 
144 145 146 147 148 149 150 151 152 
153 154 155 156 157 158 159 160 161 
162 163 164 165 166 167 168 169 170 
171 172 173 174 175 176 177 178 179 
180 181 182 183 184 185 186 187 188 
189 190 191 192 193 194 195 196 197 
198 199 200 201 202 203 204 205 206 
207 208 209 210 211 212 213 214 215 
216 217 218 219 220 221 222 223 224 
225 226 227 228 229 230 231 232 233 
234 235 236 237 238 239 240 241 242 
243 244 245 246 247 248 249 250 251 
252 253 254 255 256 257 258 259 260 
261 262 263 264 265 266 267 268 269 
270 271 272 273 274 275 276 277 278 
279 280 281 282 283 284 285 286 287 
288 289 290 291 292 293 294 295 296 
297 298 299 300 301 302 303 304 305 
306 307 308 309 310 311 312 313 314 
315 316 317 318 319 320 321 322 323 
324 325 326 327 328 329 330 331 332 
333 334 335 336 337 338 339 340 341 
342 343 344 345 346 347 348 349 350 
351 352 353 354 355 356 357 358 359 
360 361 362 363 364 365 366 367 368 
369 370 371 372 373 374 375 376 
POINT_DATA 377
FIELD FieldData 2
curvature 1 377 double
0.0383755 0.0374728 0.0365851 0.035709 0.0348422 0.0339842 0.0328554 0.0320244 0.0312132 
0.0304307 0.0296885 0.029002 0.0282053 0.0277258 0.0273749 0.0271784 0.0271618 0.0273486 
0.0279456 0.0286686 0.0296319 0.0308304 0.0322544 0.0338907 0.0363727 0.0384347 0.0406472 
0.0429916 0.0454499 0.0480058 0.0515412 0.0542726 0.0570606 0.059895 0.062766 0.0656648 
0.0695613 0.0725 0.0754472 0.0783985 0.0813496 0.0842957 0.0882089 0.0911298 0.094036 
0.0969239 0.0997908 0.102634 0.106379 0.10915 0.11189 0.114597 0.117266 0.120752 
0.123298 0.125772 0.128158 0.13044 0.132596 0.13523 0.136984 0.138517 0.139812 
0.140854 0.14163 0.142227 0.142333 0.142136 0.141635 0.140837 0.13975 0.137869 
0.136157 0.134202 0.132027 0.129654 0.127108 0.123483 0.120624 0.11767 0.114641 
0.111555 0.108425 0.104205 0.101015 0.0978101 0.0945921 0.0913619 0.0881177 0.0837662 
0.0804781 0.0771637 0.0738185 0.0704377 0.0670169 0.0623879 0.0588619 0.0552871 0.0516628 
0.0479898 0.0430191 0.0392398 0.0354209 0.0315667 0.0276829 0.0237774 0.0185595 0.0146704 
0.0108657 0.00732144 0.00472653 0.00496657 0.00897525 0.0127422 0.0166912 0.0207244 0.0248067 
0.0289248 0.0344654 0.03866 0.0428932 0.0471717 0.0515033 0.0558967 0.0618676 0.0664428 
0.0711113 0.0758824 0.0807633 0.0857597 0.0926074 0.0978825 0.103271 0.108764 0.114346 
0.119994 0.127575 0.133244 0.138838 0.144293 0.149534 0.154478 0.160456 0.164353 
0.167642 0.170226 0.172015 0.172939 0.17274 0.171475 0.169264 0.166149 0.162191 
0.155716 0.150045 0.143755 0.136926 0.129647 0.122006 0.111379 0.103161 0.0947825 
0.0862821 0.0776975 0.0690576 0.0574866 0.0488035 0.0401546 0.0316015 0.0233045 0.0157833 
0.0108234 0.0149253 0.0227003 0.031763 0.0414911 0.0517242 0.0661027 0.0774519 0.0893122 
0.101705 0.114643 0.128119 0.146869 0.161424 0.176276 0.191252 0.206121 0.220589 
0.238644 0.250726 0.261081 0.269298 0.275012 0.277948 0.277298 0.273398 0.266762 
0.257706 0.246621 0.229433 0.2153 0.200543 0.185497 0.170444 0.155602 0.136397 
0.122544 0.109213 0.0964239 0.0842076 0.0726137 0.058302 0.048734 0.0407271 0.035236 
0.033525 0.0362711 0.045714 0.0557259 0.0674609 0.0806063 0.0950617 0.110846 0.13411 
0.153381 0.174382 0.197258 0.222123 0.249026 0.287954 0.319125 0.351439 0.384076 
0.41589 0.445451 0.478599 0.496679 0.507488 0.5103 0.505065 0.492415 0.466127 
0.44134 0.413967 0.385441 0.356934 0.329323 0.294952 0.271489 0.250226 0.23124 
0.214543 0.195775 0.184231 0.17476 0.167263 0.161639 0.15778 0.155175 0.154954 
0.156059 0.158339 0.161641 0.165814 0.172468 0.178077 0.184058 0.190269 0.196565 
0.202806 0.210806 0.216386 0.221453 0.225874 0.229526 0.232297 0.234474 0.234891 
0.234233 0.232507 0.229749 0.226024 0.219701 0.21408 0.207839 0.201098 0.193979 
0.186598 0.176533 0.168934 0.161382 0.153943 0.14667 0.139607 0.13057 0.124107 
0.117928 0.112042 0.109505 0.110896 0.113632 0.116292 0.117588 0.120095 0.122473 
0.123607 0.125751 0.127711 0.129468 0.130263 0.131677 0.132842 0.133327 0.134092 
0.134579 0.134715 0.134773 0.134543 0.134028 0.133665 0.132736 0.131545 0.130855 
0.129298 0.127519 0.126552 0.124478 0.0307677 0.0309552 0.0310779 0.0311988 0.0313774 
0.0314947 0.0316107 0.0317828 0.0318964 0.0320652 0.0321768 0.0322878 0.032453 0.0325623 
0.0326707 0.0328314 0.0329371 0.0330929 0.0331945 0.0332941 0.0334389 0.0335319 0.0336218 
0.03375 0.0338304 0.0339427 0.0340116 0.0340754 0.0341607 0.0342103 0.034254 0.0343077 
0.0343355 0.0343648 0.034376 0.0343805 0.0343749 0.0343628 0.0343442 0.0343045 0.0342703 
0.034208 0.0341593 0.0341052 0.0340143 0.0339475 0.033876 0.0337604 0.033678 
torsion 1 377 double
0.0919856 0.096336 0.101787 0.108476 0.116537 0.126088 0.14141 0.154987 0.170307 
0.187421 0.206283 0.226404 0.25438 0.275378 0.294956 0.311902 0.325098 0.333205 
0.334696 0.329024 0.318327 0.303802 0.286824 0.268578 0.243777 0.225924 0.209294 
0.19411 0.180528 0.168572 0.154872 0.146144 0.138637 0.132233 0.126842 0.122387 
0.117508 0.114445 0.111866 0.109618 0.107573 0.105745 0.103488 0.101689 0.0998157 
0.0978453 0.0956406 0.0932117 0.0896724 0.0868345 0.0838244 0.0806336 0.0773437 0.0728257 
0.0693261 0.0657431 0.062077 0.0583213 0.054403 0.0488328 0.0444045 0.039899 0.0354315 
0.0309705 0.026512 0.0206528 0.0162875 0.0119691 0.00785324 0.0039197 0.000144337 -0.00451617 
-0.00772915 -0.0107151 -0.0133886 -0.0157236 -0.0177184 -0.019847 -0.0210304 -0.0218329 -0.0223003 
-0.0224803 -0.0223412 -0.0216956 -0.0209765 -0.0200306 -0.0188715 -0.0176271 -0.016291 -0.0143741 
-0.0129828 -0.0116589 -0.0104116 -0.00935417 -0.00854866 -0.00794256 -0.00792489 -0.00838305 -0.00944536 
-0.0112101 -0.0149387 -0.0192346 -0.0253574 -0.0341358 -0.0471894 -0.0674879 -0.116955 -0.192817 
-0.358944 -0.800338 -1.93081 -1.74931 -0.533585 -0.264104 -0.154156 -0.101082 -0.0723133 
-0.0554627 -0.0427277 -0.0373485 -0.0341161 -0.0323661 -0.0316925 -0.0318047 -0.0328401 -0.0341064 
-0.035713 -0.037583 -0.0395987 -0.0417575 -0.0448281 -0.0471377 -0.049469 -0.0518459 -0.0541439 
-0.0563678 -0.0592934 -0.0613659 -0.0633362 -0.065264 -0.0670453 -0.0685796 -0.0703396 -0.0714073 
-0.0721943 -0.0727524 -0.0730747 -0.0730118 -0.072362 -0.0715247 -0.0705012 -0.0692825 -0.0678501 
-0.0654919 -0.0633881 -0.0610144 -0.0583893 -0.0554764 -0.0522063 -0.0470307 -0.0422618 -0.0364017 
-0.0290398 -0.0194594 -0.00631395 0.0207388 0.0539432 0.110394 0.218055 0.455646 1.07655 
2.41452 1.27602 0.538026 0.258814 0.13698 0.0749467 0.0308353 0.0115687 -0.0015478 
-0.0110441 -0.0181477 -0.0235658 -0.0291301 -0.0323839 -0.0349662 -0.0370242 -0.0386214 -0.0397206 
-0.0404351 -0.0404056 -0.0398684 -0.0388011 -0.0371881 -0.0350241 -0.031286 -0.0278645 -0.0240142 
-0.0197545 -0.0150638 -0.00822114 -0.0026256 0.00352029 0.0102591 0.0177018 0.0262157 0.0401728 
0.0536786 0.0712392 0.0948551 0.127405 0.174208 0.274795 0.397057 0.573975 0.775579 
0.868238 0.753829 0.487737 0.336879 0.237178 0.172297 0.129278 0.099956 0.0737819 
0.0603577 0.0505139 0.0431813 0.0376931 0.0336658 0.030068 0.0284855 0.0278254 0.0280451 
0.0291305 0.0310734 0.0349746 0.0388461 0.0433167 0.0482686 0.0536408 0.0592647 0.0669509 
0.0729234 0.079 0.0851307 0.0914766 0.0981087 0.10713 0.114129 0.121321 0.128474 
0.135408 0.143846 0.14909 0.15295 0.155032 0.155061 0.152837 0.146342 0.139279 
0.130792 0.121271 0.111219 0.101054 0.0876733 0.0781422 0.0693 0.0610825 0.0534881 
0.0466643 0.0385942 0.0332053 0.0283601 0.023995 0.0200589 0.0165411 0.0124597 0.00982491 
0.0075423 0.005599 0.0039818 0.00265289 0.00127127 0.000512643 -5.53e-05 -0.000475753 -0.000759093 
-0.000927819 -0.00104787 -0.00107041 -0.00104815 -0.00100506 -0.000945347 -0.000872523 -0.000778852 -0.000714992 
-0.000656478 -0.000606133 2.65e-05 2.72e-05 2.92e-05 3.2e-05 3.37e-05 3.77e-05 4.27e-05 
4.54e-05 5.06e-05 5.58e-05 6.07e-05 6.31e-05 6.77e-05 7.13e-05 7.24e-05 7.35e-05 
7.27e-05 7.17e-05 6.83e-05 6.38e-05 5.91e-05 5.66e-05 5.16e-05 4.63e-05 4.36e-05 
3.86e-05 3.45e-05 3.28e-05 3e-05 -0.000227627 -0.000270411 -0.000310109 -0.000358127 -0.00043766 
-0.000494977 -0.000555715 -0.000651562 -0.000707683 -0.000773411 -0.000804772 -0.000826057 -0.000836175 -0.00082708 
-0.000805273 -0.000748701 -0.000701848 -0.000633169 -0.000588518 -0.000544826 -0.000488471 -0.000469232 -0.000465636 
-0.000489545 -0.00052454 -0.000600243 -0.000665695 -0.000743093 -0.000879172 -0.000967588 -0.0010492 -0.00115897 
-0.00122377 -0.00129361 -0.00131542 -0.00131752 -0.00128396 -0.00124108 -0.00118645 -0.0010826 -0.000998832 
-0.000859611 -0.000771284 -0.000687591 -0.000570679 -0.000499496 -0.000440152 -0.00037511 -0.000347597 
