# vtk DataFile Version 5.1
vtk output
ASCII
DATASET POLYDATA
POINTS 449 float
64.125 91.9688 0.281646 64.1018 91.9837 0.568357 64.0785 91.9991 0.854829 
64.0547 92.0155 1.14082 64.0304 92.0332 1.4261 64.0053 92.0529 1.71042 
63.9793 92.0749 1.99355 63.9521 92.0998 2.27525 63.9236 92.1279 2.55528 
63.8935 92.1599 2.83339 63.8617 92.196 3.10936 63.828 92.2367 3.38303 
63.7926 92.2813 3.65463 63.7554 92.329 3.92449 63.7167 92.3791 4.19294 
63.6765 92.4306 4.46028 63.635 92.4829 4.72685 63.5923 92.5351 4.99297 
63.5485 92.5864 5.25896 63.5037 92.636 5.52513 63.458 92.6831 5.79183 
63.4116 92.7272 6.05927 63.3645 92.7687 6.32734 63.3169 92.8083 6.59583 
63.2688 92.8466 6.86452 63.2202 92.8844 7.13321 63.1714 92.9223 7.40169 
63.1224 92.9611 7.66975 63.0732 93.0014 7.93717 63.0239 93.0439 8.20374 
62.9748 93.0892 8.46926 62.9256 93.1379 8.73355 62.8763 93.1897 8.99656 
62.8263 93.2439 9.25825 62.7753 93.3002 9.51861 62.7229 93.3578 9.77761 
62.6687 93.4164 10.0352 62.6125 93.4754 10.2914 62.5537 93.5341 10.5462 
62.492 93.5922 10.7996 62.4271 93.6491 11.0515 62.3586 93.7044 11.3019 
62.287 93.7581 11.5511 62.2125 93.8105 11.7993 62.1358 93.8618 12.0469 
62.057 93.9123 12.2941 61.9769 93.9621 12.5411 61.8956 94.0115 12.7883 
61.8137 94.0608 13.0359 61.7317 94.11 13.2842 61.6498 94.1595 13.5334 
61.5685 94.2094 13.7838 61.487 94.2588 14.0351 61.4045 94.307 14.2871 
61.3202 94.3531 14.5395 61.2333 94.3962 14.792 61.143 94.4354 15.0443 
61.0485 94.4699 15.2962 60.9489 94.4989 15.5474 60.8434 94.5214 15.7975 
60.7312 94.5366 16.0464 60.6119 94.5439 16.2937 60.4866 94.5438 16.5398 
60.3568 94.5368 16.7848 60.224 94.5238 17.029 60.0898 94.5054 17.2727 
59.9557 94.4823 17.5161 59.8231 94.4552 17.7595 59.6936 94.4248 18.0032 
59.5687 94.3918 18.2473 59.45 94.3569 18.4923 59.3385 94.3207 18.7382 
59.2342 94.283 18.985 59.1366 94.2437 19.2327 59.0451 94.2024 19.481 
58.9592 94.159 19.7299 58.8785 94.1133 19.9793 58.8025 94.0649 20.229 
58.7306 94.0138 20.479 58.6623 93.9596 20.7291 58.5972 93.902 20.9791 
58.5351 93.841 21.2291 58.4771 93.776 21.4784 58.4249 93.7066 21.7265 
58.3799 93.6325 21.9729 58.3436 93.5533 22.217 58.3177 93.4684 22.4584 
58.3035 93.3775 22.6965 58.3026 93.2802 22.9308 58.3167 93.176 23.1607 
58.347 93.0646 23.3857 58.3949 92.9457 23.6052 58.4594 92.8195 23.8191 
58.5393 92.6863 24.0269 58.6335 92.5467 24.2284 58.7406 92.4009 24.4232 
58.8595 92.2493 24.6111 58.9889 92.0923 24.7918 59.1275 91.9304 24.965 
59.2742 91.7638 25.1303 59.4277 91.593 25.2875 59.587 91.4186 25.4364 
59.7522 91.2419 25.5769 59.9236 91.0646 25.7092 60.1015 90.8883 25.8332 
60.2861 90.7147 25.9492 60.478 90.5454 26.057 60.6772 90.382 26.157 
60.8842 90.2261 26.249 61.0992 90.0794 26.3332 61.3226 89.9435 26.4097 
61.5542 89.8191 26.4785 61.7926 89.7039 26.5398 62.0357 89.5946 26.5937 
62.2815 89.4878 26.6403 62.5281 89.3803 26.6797 62.7736 89.2688 26.7122 
63.0158 89.1499 26.7377 63.253 89.0206 26.7565 63.483 88.8773 26.7687 
63.704 88.7169 26.7743 63.9146 88.5372 26.7736 64.1161 88.341 26.767 
64.3107 88.1321 26.7547 64.5004 87.9143 26.7373 64.6872 87.6916 26.715 
64.873 87.4678 26.6883 65.0601 87.2468 26.6575 65.2504 87.0323 26.6231 
65.4458 86.8284 26.5854 65.6486 86.6389 26.5448 65.8601 86.4665 26.5017 
66.0794 86.3095 26.4565 66.3052 86.1653 26.4096 66.536 86.0311 26.3613 
66.7704 85.904 26.3122 67.0069 85.7814 26.2625 67.2442 85.6605 26.2127 
67.4807 85.5386 26.1631 67.7151 85.4128 26.1142 67.9459 85.2804 26.0663 
68.1721 85.1393 26.0198 68.3943 84.9901 25.9749 68.6132 84.8337 25.9318 
68.83 84.6713 25.8904 69.0455 84.504 25.8511 69.2606 84.3329 25.8139 
69.4764 84.1591 25.779 69.6936 83.9837 25.7465 69.9132 83.8079 25.7165 
70.1363 83.6328 25.6892 70.3633 83.4591 25.6648 70.5939 83.2871 25.6435 
70.8271 83.1165 25.6256 71.0623 82.9472 25.6113 71.2986 82.779 25.6009 
71.5353 82.6118 25.5948 71.7715 82.4454 25.5931 72.0064 82.2796 25.5962 
72.2393 82.1143 25.6043 72.4693 81.9494 25.6178 72.696 81.7847 25.6368 
72.9194 81.6205 25.6614 73.1401 81.4568 25.6918 73.3586 81.294 25.728 
73.5754 81.1323 25.77 73.7908 80.9718 25.818 74.0053 80.8129 25.8719 
74.2195 80.6557 25.9319 74.4338 80.5005 25.9981 74.6486 80.3475 26.0704 
74.8642 80.1967 26.1492 75.0799 80.0481 26.2346 75.2948 79.9011 26.3274 
75.508 79.7555 26.428 75.7186 79.611 26.537 75.9257 79.4671 26.6547 
76.1284 79.3236 26.7819 76.3259 79.18 26.9189 76.5171 79.0362 27.0662 
76.7012 78.8916 27.2245 76.8776 78.7464 27.3938 77.0462 78.6021 27.5731 
77.2073 78.4607 27.7607 77.3613 78.3242 27.9551 77.5084 78.1946 28.1549 
77.6489 78.0738 28.3586 77.783 77.9638 28.5645 77.911 77.8666 28.7713 
78.0332 77.7841 28.9774 78.1499 77.7184 29.1812 78.2613 77.6705 29.3817 
78.3672 77.6383 29.5798 78.4675 77.6186 29.7765 78.5621 77.6084 29.9732 
78.6507 77.6046 30.171 78.7331 77.6041 30.3713 78.8093 77.6039 30.5752 
78.879 77.6008 30.7839 78.942 77.5919 30.9988 78.9982 77.574 31.2209 
79.0477 77.5448 31.4512 79.0914 77.5048 31.6886 79.1307 77.4554 31.9317 
79.1668 77.3979 32.1791 79.2011 77.3337 32.4294 79.2348 77.2639 32.6812 
79.2691 77.19 32.9331 79.3055 77.1132 33.1836 79.3451 77.0348 33.4313 
79.3892 76.9563 33.6749 79.4387 76.8788 33.9132 79.4932 76.8034 34.1471 
79.5515 76.7313 34.3774 79.6127 76.6635 34.6053 79.6759 76.601 34.8317 
79.7401 76.545 35.0578 79.8043 76.4964 35.2846 79.8676 76.4565 35.5131 
79.9289 76.4262 35.7444 79.9874 76.4066 35.9795 80.0424 76.3981 36.2193 
80.0946 76.3984 36.4633 80.145 76.4044 36.7113 80.1948 76.4131 36.9626 
80.2449 76.4214 37.2168 80.2963 76.4264 37.4734 80.3502 76.4251 37.7318 
80.4076 76.4142 37.9915 80.4694 76.391 38.2521 80.5369 76.3523 38.5131 
80.6104 76.2956 38.7737 80.689 76.2211 39.0323 80.7708 76.1294 39.287 
80.8543 76.021 39.5359 80.9379 75.8967 39.7772 81.0198 75.757 40.0089 
81.0985 75.6027 40.2292 81.1722 75.4342 40.4363 81.2394 75.2524 40.6282 
81.2985 75.0577 40.803 81.3481 74.8509 40.9593 81.3893 74.6331 41.0969 
81.4234 74.4051 41.2162 81.4516 74.1682 41.3174 81.4753 73.9234 41.4007 
81.4959 73.6717 41.4666 81.5147 73.4142 41.5151 81.533 73.152 41.5466 
81.5522 72.8861 41.5614 81.5736 72.6176 41.5597 81.5978 72.3475 41.542 
81.6224 72.0771 41.5095 81.6445 71.8078 41.4634 81.661 71.5406 41.4052 
81.6687 71.277 41.336 81.6647 71.0181 41.2574 81.6459 70.7652 41.1705 
81.6091 70.5196 41.0768 81.5514 70.2825 40.9776 81.4697 70.0553 40.8741 
81.3621 69.8387 40.7676 81.2313 69.6325 40.6582 81.0813 69.4358 40.5458 
80.916 69.2477 40.4306 80.7394 69.0676 40.3123 80.5554 68.8947 40.1911 
80.3679 68.7281 40.067 80.1809 68.5671 39.9398 79.9983 68.4109 39.8095 
79.824 68.2587 39.6762 79.6611 68.1096 39.5403 79.5083 67.9621 39.4035 
79.3636 67.8145 39.2682 79.225 67.6654 39.1366 79.0903 67.513 39.0109 
78.9574 67.3557 38.8936 78.8243 67.192 38.7867 78.689 67.0201 38.6926 
78.5492 66.8386 38.6136 78.403 66.6457 38.5519 78.2489 66.4403 38.509 
78.0887 66.2234 38.4838 77.9246 65.9964 38.4742 77.7589 65.7606 38.4784 
77.5942 65.5174 38.4944 77.4326 65.2683 38.5202 77.2767 65.0147 38.5539 
77.1286 64.7579 38.5935 76.9908 64.4994 38.6372 76.8656 64.2406 38.6829 
76.7549 63.9829 38.7294 76.6584 63.7287 38.7789 76.5753 63.4802 38.8338 
76.5049 63.2398 38.897 76.4465 63.0097 38.9712 76.3992 62.7923 39.0591 
76.3624 62.59 39.1634 76.3352 62.405 39.2869 76.3169 62.2398 39.4322 
76.3067 62.0965 39.6021 76.3042 61.977 39.7981 76.3103 61.8807 40.0164 
76.3262 61.8063 40.2523 76.3532 61.7525 40.501 76.3923 61.7183 40.7574 
76.4449 61.7024 41.0168 76.5121 61.7035 41.2744 76.5952 61.7205 41.5251 
76.6953 61.7521 41.7643 76.8138 61.7971 41.9869 76.9511 61.8544 42.1891 
77.1056 61.9233 42.3707 77.275 62.0031 42.5323 77.4569 62.0931 42.6746 
77.6489 62.1926 42.7984 77.8488 62.301 42.9043 78.0542 62.4176 42.9931 
78.2628 62.5418 43.0654 78.4722 62.6729 43.122 78.6802 62.8102 43.1636 
78.8845 62.9533 43.1911 79.0834 63.1021 43.2066 79.2753 63.257 43.2125 
79.4587 63.4182 43.2112 79.632 63.5859 43.2051 79.7937 63.7605 43.1965 
79.942 63.942 43.1878 80.0756 64.1309 43.1814 80.1928 64.3272 43.1796 
80.2919 64.5314 43.1849 80.3724 64.7433 43.1991 80.4364 64.9624 43.2222 
80.4871 65.1879 43.2539 80.5277 65.4188 43.2936 80.5612 65.6543 43.3408 
80.5908 65.8936 43.3952 80.6197 66.1358 43.4563 80.6509 66.38 43.5235 
80.6876 66.6255 43.5965 80.7329 66.8714 43.6748 80.789 67.1168 43.7581 
80.8536 67.3614 43.8469 80.9236 67.6046 43.9415 80.996 67.8461 44.0427 
81.0675 68.0856 44.151 81.135 68.3224 44.267 81.1953 68.5564 44.3911 
81.2454 68.7869 44.5241 81.282 69.0137 44.6664 81.302 69.2364 44.8186 
81.303 69.4546 44.9808 81.2853 69.6687 45.1512 81.2499 69.8792 45.3278 
81.1979 70.0867 45.5083 81.1304 70.2916 45.6904 81.0483 70.4945 45.8721 
80.9527 70.6959 46.0511 80.8446 70.8962 46.2252 80.7252 71.0961 46.3922 
80.5953 71.2959 46.55 80.4561 71.4961 46.6968 80.3086 71.6968 46.8334 
80.1535 71.8979 46.9608 79.9919 72.0993 47.0801 79.8247 72.301 47.1926 
79.6529 72.503 47.2994 79.4773 72.7052 47.4016 79.2989 72.9076 47.5003 
79.1187 73.11 47.5968 78.9466 73.2242 47.6993 78.7746 73.3384 47.8018 
78.6116 73.3643 47.9113 78.4481 73.3903 48.0202 78.2839 73.4165 48.1283 
78.1189 73.4429 48.2354 77.9528 73.4696 48.3411 77.7854 73.4966 48.4452 
77.6164 73.524 48.5474 77.4458 73.5518 48.6475 77.2732 73.5802 48.7451 
77.0986 73.6089 48.8403 76.9225 73.637 48.9338 76.7459 73.6635 49.0265 
76.5693 73.6871 49.1196 76.3935 73.7067 49.2139 76.2194 73.7213 49.3104 
76.0476 73.7296 49.4102 75.8789 73.7306 49.5141 75.7141 73.7231 49.6233 
75.5539 73.7059 49.7387 75.3988 73.6784 49.8609 75.2486 73.6413 49.9897 
75.1026 73.5956 50.1241 74.9605 73.5423 50.2636 74.8215 73.4826 50.4074 
74.6852 73.4175 50.5547 74.5511 73.3481 50.705 74.4186 73.2756 50.8573 
74.2872 73.2008 51.0112 73.9049 73.0064 51.2357 73.6538 72.8877 51.3057 
73.4029 72.7688 51.3757 73.1525 72.6495 51.4457 72.9027 72.5297 51.5157 
72.6537 72.4093 51.5858 72.4056 72.2882 51.6559 72.1585 72.1662 51.7261 
71.9126 72.0432 51.7963 71.6682 71.9192 51.8666 71.4251 71.7939 51.9368 
71.1835 71.6677 52.0061 70.943 71.5404 52.0736 70.7035 71.4125 52.1384 
70.4649 71.2839 52.1994 70.227 71.1549 52.2557 69.9897 71.0255 52.3065 
69.7527 70.8961 52.3507 69.5159 70.7666 52.3874 69.2791 70.6373 52.4157 
69.0423 70.5081 52.4349 68.8052 70.3788 52.446 68.5678 70.2486 52.4502 
68.3301 70.1172 52.4487 68.0918 69.984 52.4427 67.8531 69.8484 52.4335 
67.6136 69.7099 52.4223 67.3735 69.5679 52.4103 67.1325 69.422 52.3988 
66.8906 69.2716 52.389 66.6478 69.1162 52.3819 66.4043 68.9561 52.3773 
66.1604 68.7914 52.3748 65.9163 68.6223 52.3742 65.6725 68.4492 52.3751 
65.4291 68.2723 52.377 65.1866 68.0918 52.3797 64.9451 67.9079 52.3827 
64.7049 67.7209 52.3857 64.4664 67.5311 52.3883 64.2298 67.3386 52.3902 
63.995 67.1437 52.3915 63.7617 66.9468 52.3921 63.5298 66.748 52.3923 
63.2991 66.5476 52.3919 63.0694 66.3459 52.3912 62.8404 66.1432 52.3902 
62.612 65.9396 52.389 62.384 65.7356 52.3876 
LINES 2 449
OFFSETS vtktypeint64
0 449 
CONNECTIVITY vtktypeint64
0 1 2 3 4 5 6 7 8 
9 10 11 12 13 14 15 16 17 
18 19 20 21 22 23 24 25 26 
27 28 29 30 31 32 33 34 35 
36 37 38 39 40 41 42 43 44 
45 46 47 48 49 50 51 52 53 
54 55 56 57 58 59 60 61 62 
63 64 65 66 67 68 69 70 71 
72 73 74 75 76 77 78 79 80 
81 82 83 84 85 86 87 88 89 
90 91 92 93 94 95 96 97 98 
99 100 101 102 103 104 105 106 107 
108 109 110 111 112 113 114 115 116 
117 118 119 120 121 122 123 124 125 
126 127 128 129 130 131 132 133 134 
135 136 137 138 139 140 141 142 143 
144 145 146 147 148 149 150 151 152 
153 154 155 156 157 158 159 160 161 
162 163 164 165 166 167 168 169 170 
171 172 173 174 175 176 177 178 179 
180 181 182 183 184 185 186 187 188 
189 190 191 192 193 194 195 196 197 
198 199 200 201 202 203 204 205 206 
207 208 209 210 211 212 213 214 215 
216 217 218 219 220 221 222 223 224 
225 226 227 228 229 230 231 232 233 
234 235 236 237 238 239 240 241 242 
243 244 245 246 247 248 249 250 251 
252 253 254 255 256 257 258 259 260 
261 262 263 264 265 266 267 268 269 
270 271 272 273 274 275 276 277 278 
279 280 281 282 283 284 285 286 287 
288 289 290 291 292 293 294 295 296 
297 298 299 300 301 302 303 304 305 
306 307 308 309 310 311 312 313 314 
315 316 317 318 319 320 321 322 323 
324 325 326 327 328 329 330 331 332 
333 334 335 336 337 338 339 340 341 
342 343 344 345 346 347 348 349 350 
351 352 353 354 355 356 357 358 359 
360 361 362 363 364 365 366 367 368 
369 370 371 372 373 374 375 376 377 
378 379 380 381 382 383 384 385 386 
387 388 389 390 391 392 393 394 395 
396 397 398 399 400 401 402 403 404 
405 406 407 408 409 410 411 412 413 
414 415 416 417 418 419 420 421 422 
423 424 425 426 427 428 429 430 431 
432 433 434 435 436 437 438 439 440 
441 442 443 444 445 446 447 448 
POINT_DATA 449
FIELD FieldData 2
curvature 1 449 double
0 0.00678413 0.0135961 0.0204634 0.0274126 0.034469 0.0416558 0.0489938 0.0564999 
0.0641863 0.0720592 0.061834 0.0514646 0.0411403 0.0312039 0.0224829 0.0172348 0.0188081 
0.0260283 0.0355868 0.0459841 0.0363932 0.0269163 0.0176136 0.00886104 0.00526629 0.012577 
0.021728 0.0312026 0.0408447 0.0506239 0.0444007 0.0390426 0.0350107 0.0328639 0.0330447 
0.0355934 0.0401362 0.0461588 0.0532248 0.0610258 0.0535527 0.0459509 0.0382916 0.0306664 
0.0232253 0.0163106 0.0109918 0.0101115 0.0143846 0.0207301 0.0143945 0.0236935 0.0384045 
0.0542003 0.070307 0.0865019 0.102657 0.118638 0.134271 0.14933 0.127508 0.106973 
0.0882394 0.0721692 0.0603578 0.0552302 0.0585292 0.0693082 0.0851998 0.104419 0.099677 
0.0947699 0.0897937 0.084853 0.0800613 0.0755414 0.0714259 0.067854 0.0649653 0.0628882 
0.0825515 0.104623 0.128422 0.153706 0.180307 0.207959 0.236182 0.264203 0.290905 
0.314857 0.292582 0.26984 0.247549 0.226368 0.206734 0.188929 0.173128 0.159457 
0.148028 0.138965 0.133682 0.132105 0.134303 0.14014 0.149308 0.1614 0.175964 
0.192515 0.210518 0.229343 0.184241 0.142798 0.110691 0.0976556 0.110617 0.142917 
0.18484 0.230675 0.276638 0.319062 0.25396 0.192973 0.137483 0.0888661 0.0545177 
0.0591328 0.0976675 0.147847 0.204465 0.266383 0.231909 0.193275 0.15227 0.110153 
0.0676548 0.025119 0.0178072 0.0604919 0.103395 0.146193 0.126903 0.107768 0.0892947 
0.0720865 0.0570856 0.0460021 0.0414243 0.0447598 0.0540769 0.0665106 0.0597575 0.0546471 
0.051434 0.0503382 0.0514436 0.0546495 0.0597236 0.0664035 0.0744725 0.0837865 0.0831191 
0.08268 0.0825215 0.082684 0.0831921 0.0840518 0.0852493 0.0867519 0.0885102 0.0904622 
0.0937112 0.0989771 0.105895 0.114108 0.12329 0.133146 0.143398 0.153774 0.163995 
0.173768 0.154912 0.142286 0.136946 0.139823 0.151378 0.171639 0.200624 0.238736 
0.286908 0.346479 0.315714 0.275222 0.229729 0.186634 0.157382 0.154706 0.17938 
0.218971 0.261614 0.299893 0.242481 0.193004 0.150361 0.113682 0.0829478 0.0604708 
0.0530744 0.0651826 0.0902633 0.122656 0.108805 0.0984313 0.0943179 0.0985586 0.111039 
0.129743 0.152227 0.176376 0.200426 0.222841 0.165659 0.112782 0.0673142 0.0436504 
0.0638625 0.10252 0.144149 0.18546 0.224883 0.26079 0.240158 0.226416 0.219459 
0.21918 0.225435 0.238045 0.256804 0.281476 0.311716 0.346895 0.338782 0.327069 
0.312918 0.297523 0.281978 0.267202 0.253916 0.242636 0.233694 0.22725 0.199862 
0.183851 0.181069 0.191872 0.214851 0.247725 0.288108 0.333427 0.38036 0.424351 
0.360805 0.297354 0.23782 0.183973 0.136969 0.0997619 0.0816107 0.0944102 0.133198 
0.188482 0.158202 0.13225 0.121529 0.135961 0.172538 0.220943 0.272533 0.320593 
0.359445 0.384743 0.311023 0.250597 0.201913 0.16373 0.135798 0.119172 0.115586 
0.125615 0.14795 0.181053 0.189198 0.211028 0.247652 0.299357 0.365938 0.446034 
0.535307 0.624042 0.69628 0.733881 0.607976 0.501386 0.419216 0.361802 0.328468 
0.318589 0.331266 0.365057 0.418185 0.488324 0.470204 0.442902 0.41025 0.375843 
0.34256 0.312497 0.287138 0.2676 0.254841 0.249764 0.2297 0.216539 0.212753 
0.220071 0.238931 0.268489 0.307062 0.352354 0.401266 0.449536 0.384953 0.317749 
0.25357 0.19625 0.149226 0.117636 0.108273 0.121666 0.149225 0.182884 0.143228 
0.112815 0.0969871 0.100604 0.121297 0.152474 0.189464 0.229601 0.270776 0.31057 
0.27969 0.25019 0.223514 0.200725 0.182673 0.170096 0.163588 0.163476 0.169683 
0.181744 0.164665 0.146641 0.128104 0.109381 0.0906945 0.0721729 0.0538684 0.0357747 
0.0178435 0 0.00890839 0.0178067 0.0266842 0.0355283 0.0443243 0.0530545 0.0616975 
0.0702275 0.0786145 0.0868233 0.0564421 0.0483738 0.0703342 0.105277 0.144665 0.18626 
0.229119 0.272342 0.314682 0.354403 0.313852 0.273028 0.233174 0.194987 0.158736 
0.12439 0.0917205 0.0603816 0.0299582 0.00237082 0.00474564 0.00712849 0.00952333 0.0119341 
0.0143648 0.0168191 0.0193009 0.0218138 0.0243614 0.0243331 0.0299182 0.0389497 0.0497648 
0.0616025 0.0741257 0.087158 0.100575 0.114253 0.128047 0.111676 0.0953057 0.0795785 
0.0653515 0.0539155 0.0471151 0.0465497 0.0518635 0.060984 0.0719399 0.0652118 0.0591094 
0.0536278 0.0487815 0.0446067 0.0411619 0.0385235 0.0367737 0.0359791 0.0361679 0.0325238 
0.0288829 0.025248 0.0216205 0.0180012 0.0143897 0.0107854 0.00718687 0.00359239 
torsion 1 449 double
0 -3.25e-13 4.24e-14 2.71e-14 -1.12e-14 -5.37e-17 4.34e-15 -7.35e-15 -5.8e-15 
-4.75e-15 0.119773 0.167395 0.247335 0.394312 0.695432 1.35419 2.3218 1.95792 
1.02331 0.546 -0.0755 -0.12 -0.217 -0.506 -2 -5.66 -0.997 
-0.336 -0.165 -0.0972195 0.370911 0.48895 0.641464 0.80972 0.933602 0.939048 
0.823907 0.660186 0.508935 0.390437 0.302934 0.0147371 0.0202445 0.0293384 0.0458213 
0.079681 0.160499 0.349741 0.407494 0.197808 0.0932 -2.11 -0.764 -0.287 
-0.142 -0.0839 -0.055 -0.0387 -0.0286 -0.0219334 -0.0172768 0.265975 0.367147 
0.527016 0.775348 1.10097 1.31935 1.19143 0.870835 0.596515 0.414652 -0.160383 
-0.184054 -0.211387 -0.242712 -0.278118 -0.317208 -0.358773 -0.400435 -0.438465 -0.468104 
0.375638 0.238781 0.16376 0.119197 0.0908 0.0715934 0.0579139 0.0477084 0.0397648 
0.0333419 -0.0759338 -0.0839789 -0.0929812 -0.103212 -0.114948 -0.128432 -0.143804 -0.160986 
-0.179523 -0.198401 0.491191 0.499915 0.48511 0.450771 0.404915 0.355539 0.308161 
0.265535 0.22845 0.196631 -0.547297 -0.908342 -1.50542 -1.93422 -1.51667 -0.918038 
-0.553948 -0.355404 -0.241409 -0.170704 0.166714 0.261799 0.473914 1.06771 2.75307 
2.34766 0.892271 0.415818 0.237445 0.154396 0.00246727 0.00371552 0.00612113 0.0118019 
0.0313755 0.228012 0.455207 0.0396462 0.0136331 0.00681603 -0.170695 -0.231572 -0.327586 
-0.485808 -0.746502 -1.10596 -1.31111 -1.07894 -0.70965 -0.449753 0.389193 0.452585 
0.50201 0.520369 0.499867 0.449001 0.385021 0.322207 0.267639 0.223032 -0.231653 
-0.245261 -0.255892 -0.262788 -0.265437 -0.263664 -0.257663 -0.247949 -0.235263 -0.220444 
0.47392 0.416597 0.358061 0.304051 0.257015 0.217303 0.18425 0.156842 0.134057 
-0.319538 -0.389634 -0.459152 -0.506803 -0.512258 -0.475264 -0.415358 -0.353115 -0.299366 
-0.256796 0.216235 0.325609 0.505346 0.811603 1.31391 1.89569 1.93928 1.37476 
0.846031 0.520768 0.116418 0.146671 0.195154 0.278765 0.436064 0.756595 1.35959 
1.74342 1.18109 0.650922 0.486146 0.681623 0.907506 1.06409 1.03633 0.856768 
0.64859 0.478271 0.353988 0.265532 0.0280087 0.0466625 0.0924419 0.239451 0.530135 
0.232822 0.0855934 0.0411572 0.023557 0.0149949 -0.171443 -0.18442 -0.194199 -0.198732 
-0.196812 -0.188721 -0.176084 -0.161059 -0.145521 -0.130663 0.150674 0.171964 0.193947 
0.216247 0.238385 0.259709 0.279327 0.296094 0.30869 0.315827 -0.574821 -0.709445 
-0.815574 -0.836101 -0.757228 -0.626769 -0.496886 -0.389952 -0.30754 -0.244383 0.0870196 
0.113462 0.153134 0.218644 0.338455 0.580949 1.07921 1.65549 1.32755 0.749635 
0.38904 0.655836 1.08683 1.45565 1.28341 0.854549 0.538958 0.349659 0.235179 
0.162262 -0.16005 -0.190273 -0.234345 -0.299576 -0.394215 -0.518131 -0.636268 -0.669338 
-0.586961 -0.458581 0.635676 0.681539 0.655648 0.582811 0.498052 0.421085 0.35675 
0.302844 0.255271 0.210649 -0.219933 -0.255245 -0.296468 -0.344056 -0.392296 -0.426988 
-0.431403 -0.401381 -0.350201 -0.29508 0.0699347 0.0833658 0.0981274 0.114544 0.133092 
0.154268 0.178342 0.204965 0.232652 0.258406 0.511619 0.63376 0.749439 0.822022 
0.821496 0.752626 0.64843 0.540357 0.444162 0.36345 0.166274 0.219314 0.296463 
0.417368 0.618587 0.951555 1.37387 1.47222 1.0706 0.658992 -0.516 -0.784 
-1.19 -1.55 -1.41 -0.964 -0.615 -0.405 -0.281 -0.203 -0.207194 
-0.244274 -0.288145 -0.339508 -0.397253 -0.456581 -0.507501 -0.536513 -0.533535 -0.49938 
1.07e-15 -3.1e-17 -1.5e-15 -2.23e-15 1.36e-15 2.44e-15 -1.86e-15 1e-14 3.75e-14 
4.76e-14 0 1.37e-12 -9.23e-14 -6.8e-15 -4.61e-14 7.7e-15 6.59e-15 -1.06e-14 
-2.2e-14 6.89e-15 1.28 2.98601 4.04259 1.92084 0.869103 0.469867 0.290418 
0.19644 0.141271 0.105931 5.24e-15 -1.75e-16 8.66e-17 2.98e-15 5.86e-16 2.94e-15 
2.13e-15 8.27e-15 8.81e-14 -2.45e-13 5.29e-13 1.69e-13 -8.81e-14 -3.29e-14 -4.47e-14 
-1.87e-14 -1.63e-14 -2e-14 -1.38e-14 -1.5 -1.53 -1.03166 -0.623487 -0.392303 
-0.263541 -0.187618 -0.139921 -0.108227 -0.0861409 0.150993 0.201 0.275 0.388 
0.561 0.796 1 0.976 0.744 0.506 -0.127 -0.144394 -0.165244 
-0.19008 -0.219048 -0.25156 -0.285689 -0.317626 -0.341826 -0.352615 -0.346948 5.71e-15 
-7.75e-15 -1.01e-14 -1.49e-14 -1.14e-14 -4.72e-14 -1.17e-13 7.13e-14 -1.66e-14 
